 Entering Gaussian System, Link 0=g16
 Input=9_hexagons5196_irreg.com
 Output=9_hexagons5196_irreg.log
 Initial command:
 /share/programs/G16_SLATER/g16/l1.exe "/scratch/avaret.31138/Gau-3749669.inp" -scrdir="/scratch/avaret.31138/"
 Entering Link 1 = /share/programs/G16_SLATER/g16/l1.exe PID=   3749678.
  
 Copyright (c) 1988,1990,1992,1993,1995,1998,2003,2009,2016,
            Gaussian, Inc.  All Rights Reserved.
  
 This is part of the Gaussian(R) 16 program.  It is based on
 the Gaussian(R) 09 system (copyright 2009, Gaussian, Inc.),
 the Gaussian(R) 03 system (copyright 2003, Gaussian, Inc.),
 the Gaussian(R) 98 system (copyright 1998, Gaussian, Inc.),
 the Gaussian(R) 94 system (copyright 1995, Gaussian, Inc.),
 the Gaussian 92(TM) system (copyright 1992, Gaussian, Inc.),
 the Gaussian 90(TM) system (copyright 1990, Gaussian, Inc.),
 the Gaussian 88(TM) system (copyright 1988, Gaussian, Inc.),
 the Gaussian 86(TM) system (copyright 1986, Carnegie Mellon
 University), and the Gaussian 82(TM) system (copyright 1983,
 Carnegie Mellon University). Gaussian is a federally registered
 trademark of Gaussian, Inc.
  
 This software contains proprietary and confidential information,
 including trade secrets, belonging to Gaussian, Inc.
  
 This software is provided under written license and may be
 used, copied, transmitted, or stored only in accord with that
 written license.
  
 The following legend is applicable only to US Government
 contracts under FAR:
  
                    RESTRICTED RIGHTS LEGEND
  
 Use, reproduction and disclosure by the US Government is
 subject to restrictions as set forth in subparagraphs (a)
 and (c) of the Commercial Computer Software - Restricted
 Rights clause in FAR 52.227-19.
  
 Gaussian, Inc.
 340 Quinnipiac St., Bldg. 40, Wallingford CT 06492
  
  
 ---------------------------------------------------------------
 Warning -- This program may not be used in any manner that
 competes with the business of Gaussian, Inc. or will provide
 assistance to any competitor of Gaussian, Inc.  The licensee
 of this program is prohibited from giving any competitor of
 Gaussian, Inc. access to this program.  By using this program,
 the user acknowledges that Gaussian, Inc. is engaged in the
 business of creating and licensing software in the field of
 computational chemistry and represents and warrants to the
 licensee that it is not a competitor of Gaussian, Inc. and that
 it will not use this program in any manner prohibited above.
 ---------------------------------------------------------------
  

 Cite this work as:
 Gaussian 16, Revision A.03,
 M. J. Frisch, G. W. Trucks, H. B. Schlegel, G. E. Scuseria, 
 M. A. Robb, J. R. Cheeseman, G. Scalmani, V. Barone, 
 G. A. Petersson, H. Nakatsuji, X. Li, M. Caricato, A. V. Marenich, 
 J. Bloino, B. G. Janesko, R. Gomperts, B. Mennucci, H. P. Hratchian, 
 J. V. Ortiz, A. F. Izmaylov, J. L. Sonnenberg, D. Williams-Young, 
 F. Ding, F. Lipparini, F. Egidi, J. Goings, B. Peng, A. Petrone, 
 T. Henderson, D. Ranasinghe, V. G. Zakrzewski, J. Gao, N. Rega, 
 G. Zheng, W. Liang, M. Hada, M. Ehara, K. Toyota, R. Fukuda, 
 J. Hasegawa, M. Ishida, T. Nakajima, Y. Honda, O. Kitao, H. Nakai, 
 T. Vreven, K. Throssell, J. A. Montgomery, Jr., J. E. Peralta, 
 F. Ogliaro, M. J. Bearpark, J. J. Heyd, E. N. Brothers, K. N. Kudin, 
 V. N. Staroverov, T. A. Keith, R. Kobayashi, J. Normand, 
 K. Raghavachari, A. P. Rendell, J. C. Burant, S. S. Iyengar, 
 J. Tomasi, M. Cossi, J. M. Millam, M. Klene, C. Adamo, R. Cammi, 
 J. W. Ochterski, R. L. Martin, K. Morokuma, O. Farkas, 
 J. B. Foresman, and D. J. Fox, Gaussian, Inc., Wallingford CT, 2016.
 
 ******************************************
 Gaussian 16:  ES64L-G16RevA.03 25-Dec-2016
                24-Aug-2020 
 ******************************************
 %chk=9_hexagons5196.chk
 %mem=1Gb
 ----------------------
 # b3lyp/6-31g opt freq
 ----------------------
 1/18=20,19=15,26=3,38=1/1,3;
 2/9=110,12=2,17=6,18=5,40=1/2;
 3/5=1,6=6,11=2,25=1,30=1,71=1,74=-5/1,2,3;
 4//1;
 5/5=2,38=5/2;
 6/7=2,8=2,9=2,10=2,28=1/1;
 7//1,2,3,16;
 1/18=20,19=15,26=3/3(2);
 2/9=110/2;
 99//99;
 2/9=110/2;
 3/5=1,6=6,11=2,25=1,30=1,71=1,74=-5/1,2,3;
 4/5=5,16=3,69=1/1;
 5/5=2,38=5/2;
 7//1,2,3,16;
 1/18=20,19=15,26=3/3(-5);
 2/9=110/2;
 6/7=2,8=2,9=2,10=2,19=2,28=1/1;
 99/9=1/99;
 --------------
 9_hexagons5196
 --------------
 Symbolic Z-matrix:
 Charge =  0 Multiplicity = 1
 C                    -1.        1.        0. 
 C                    -1.        2.4       0. 
 C                     0.        0.        0. 
 C                     0.        3.4       0. 
 C                    -2.        3.4       0. 
 C                    -3.        2.4       0. 
 C                    -2.        4.8       0. 
 C                    -4.        3.4       0. 
 C                     1.        1.        0. 
 C                     1.        2.4       0. 
 C                     2.        3.4       0. 
 C                     0.        4.8       0. 
 C                     3.        2.4       0. 
 C                     4.        3.4       0. 
 C                     2.        4.8       0. 
 C                     4.        4.8       0. 
 C                    -3.        5.8       0. 
 C                    -1.        5.8       0. 
 C                    -4.        4.8       0. 
 C                    -3.        7.2       0. 
 C                     1.        5.8       0. 
 C                    -1.        7.2       0. 
 C                     3.        5.8       0. 
 C                     1.        7.2       0. 
 C                    -2.        8.2       0. 
 C                     0.        8.2       0. 
 C                    -2.        9.6       0. 
 C                     2.        8.2       0. 
 C                     0.        9.6       0. 
 C                     3.        7.2       0. 
 C                     4.        8.2       0. 
 C                     2.        9.6       0. 
 C                     4.        9.6       0. 
 C                    -1.        10.6      0. 
 C                     1.        10.6      0. 
 C                     3.        10.6      0. 
 H                     0.       -1.1       0. 
 H                     1.68      0.32      0. 
 H                    -1.68      0.32      0. 
 H                    -3.        1.3       0. 
 H                    -4.68      5.48      0. 
 H                    -4.68      2.72      0. 
 H                     3.        1.3       0. 
 H                     4.68      2.72      0. 
 H                     4.68      5.48      0. 
 H                    -3.68      7.88      0. 
 H                    -1.        11.7      0. 
 H                    -2.68      10.28     0. 
 H                     1.        11.7      0. 
 H                     4.68      7.52      0. 
 H                     4.68      10.28     0. 
 H                     3.        11.7      0. 
 

 GradGradGradGradGradGradGradGradGradGradGradGradGradGradGradGradGradGrad
 Berny optimization.
 Initialization pass.
                           ----------------------------
                           !    Initial Parameters    !
                           ! (Angstroms and Degrees)  !
 --------------------------                            --------------------------
 ! Name  Definition              Value          Derivative Info.                !
 --------------------------------------------------------------------------------
 ! R1    R(1,2)                  1.4            estimate D2E/DX2                !
 ! R2    R(1,3)                  1.4142         estimate D2E/DX2                !
 ! R3    R(1,39)                 0.9617         estimate D2E/DX2                !
 ! R4    R(2,4)                  1.4142         estimate D2E/DX2                !
 ! R5    R(2,5)                  1.4142         estimate D2E/DX2                !
 ! R6    R(3,9)                  1.4142         estimate D2E/DX2                !
 ! R7    R(3,37)                 1.1            estimate D2E/DX2                !
 ! R8    R(4,10)                 1.4142         estimate D2E/DX2                !
 ! R9    R(4,12)                 1.4            estimate D2E/DX2                !
 ! R10   R(5,6)                  1.4142         estimate D2E/DX2                !
 ! R11   R(5,7)                  1.4            estimate D2E/DX2                !
 ! R12   R(6,8)                  1.4142         estimate D2E/DX2                !
 ! R13   R(6,40)                 1.1            estimate D2E/DX2                !
 ! R14   R(7,17)                 1.4142         estimate D2E/DX2                !
 ! R15   R(7,18)                 1.4142         estimate D2E/DX2                !
 ! R16   R(8,19)                 1.4            estimate D2E/DX2                !
 ! R17   R(8,42)                 0.9617         estimate D2E/DX2                !
 ! R18   R(9,10)                 1.4            estimate D2E/DX2                !
 ! R19   R(9,38)                 0.9617         estimate D2E/DX2                !
 ! R20   R(10,11)                1.4142         estimate D2E/DX2                !
 ! R21   R(11,13)                1.4142         estimate D2E/DX2                !
 ! R22   R(11,15)                1.4            estimate D2E/DX2                !
 ! R23   R(12,18)                1.4142         estimate D2E/DX2                !
 ! R24   R(12,21)                1.4142         estimate D2E/DX2                !
 ! R25   R(13,14)                1.4142         estimate D2E/DX2                !
 ! R26   R(13,43)                1.1            estimate D2E/DX2                !
 ! R27   R(14,16)                1.4            estimate D2E/DX2                !
 ! R28   R(14,44)                0.9617         estimate D2E/DX2                !
 ! R29   R(15,21)                1.4142         estimate D2E/DX2                !
 ! R30   R(15,23)                1.4142         estimate D2E/DX2                !
 ! R31   R(16,23)                1.4142         estimate D2E/DX2                !
 ! R32   R(16,45)                0.9617         estimate D2E/DX2                !
 ! R33   R(17,19)                1.4142         estimate D2E/DX2                !
 ! R34   R(17,20)                1.4            estimate D2E/DX2                !
 ! R35   R(18,22)                1.4            estimate D2E/DX2                !
 ! R36   R(19,41)                0.9617         estimate D2E/DX2                !
 ! R37   R(20,25)                1.4142         estimate D2E/DX2                !
 ! R38   R(20,46)                0.9617         estimate D2E/DX2                !
 ! R39   R(21,24)                1.4            estimate D2E/DX2                !
 ! R40   R(22,25)                1.4142         estimate D2E/DX2                !
 ! R41   R(22,26)                1.4142         estimate D2E/DX2                !
 ! R42   R(23,30)                1.4            estimate D2E/DX2                !
 ! R43   R(24,26)                1.4142         estimate D2E/DX2                !
 ! R44   R(24,28)                1.4142         estimate D2E/DX2                !
 ! R45   R(25,27)                1.4            estimate D2E/DX2                !
 ! R46   R(26,29)                1.4            estimate D2E/DX2                !
 ! R47   R(27,34)                1.4142         estimate D2E/DX2                !
 ! R48   R(27,48)                0.9617         estimate D2E/DX2                !
 ! R49   R(28,30)                1.4142         estimate D2E/DX2                !
 ! R50   R(28,32)                1.4            estimate D2E/DX2                !
 ! R51   R(29,34)                1.4142         estimate D2E/DX2                !
 ! R52   R(29,35)                1.4142         estimate D2E/DX2                !
 ! R53   R(30,31)                1.4142         estimate D2E/DX2                !
 ! R54   R(31,33)                1.4            estimate D2E/DX2                !
 ! R55   R(31,50)                0.9617         estimate D2E/DX2                !
 ! R56   R(32,35)                1.4142         estimate D2E/DX2                !
 ! R57   R(32,36)                1.4142         estimate D2E/DX2                !
 ! R58   R(33,36)                1.4142         estimate D2E/DX2                !
 ! R59   R(33,51)                0.9617         estimate D2E/DX2                !
 ! R60   R(34,47)                1.1            estimate D2E/DX2                !
 ! R61   R(35,49)                1.1            estimate D2E/DX2                !
 ! R62   R(36,52)                1.1            estimate D2E/DX2                !
 ! A1    A(2,1,3)              135.0            estimate D2E/DX2                !
 ! A2    A(2,1,39)             135.0            estimate D2E/DX2                !
 ! A3    A(3,1,39)              90.0            estimate D2E/DX2                !
 ! A4    A(1,2,4)              135.0            estimate D2E/DX2                !
 ! A5    A(1,2,5)              135.0            estimate D2E/DX2                !
 ! A6    A(4,2,5)               90.0            estimate D2E/DX2                !
 ! A7    A(1,3,9)               90.0            estimate D2E/DX2                !
 ! A8    A(1,3,37)             135.0            estimate D2E/DX2                !
 ! A9    A(9,3,37)             135.0            estimate D2E/DX2                !
 ! A10   A(2,4,10)              90.0            estimate D2E/DX2                !
 ! A11   A(2,4,12)             135.0            estimate D2E/DX2                !
 ! A12   A(10,4,12)            135.0            estimate D2E/DX2                !
 ! A13   A(2,5,6)               90.0            estimate D2E/DX2                !
 ! A14   A(2,5,7)              135.0            estimate D2E/DX2                !
 ! A15   A(6,5,7)              135.0            estimate D2E/DX2                !
 ! A16   A(5,6,8)               90.0            estimate D2E/DX2                !
 ! A17   A(5,6,40)             135.0            estimate D2E/DX2                !
 ! A18   A(8,6,40)             135.0            estimate D2E/DX2                !
 ! A19   A(5,7,17)             135.0            estimate D2E/DX2                !
 ! A20   A(5,7,18)             135.0            estimate D2E/DX2                !
 ! A21   A(17,7,18)             90.0            estimate D2E/DX2                !
 ! A22   A(6,8,19)             135.0            estimate D2E/DX2                !
 ! A23   A(6,8,42)              90.0            estimate D2E/DX2                !
 ! A24   A(19,8,42)            135.0            estimate D2E/DX2                !
 ! A25   A(3,9,10)             135.0            estimate D2E/DX2                !
 ! A26   A(3,9,38)              90.0            estimate D2E/DX2                !
 ! A27   A(10,9,38)            135.0            estimate D2E/DX2                !
 ! A28   A(4,10,9)             135.0            estimate D2E/DX2                !
 ! A29   A(4,10,11)             90.0            estimate D2E/DX2                !
 ! A30   A(9,10,11)            135.0            estimate D2E/DX2                !
 ! A31   A(10,11,13)            90.0            estimate D2E/DX2                !
 ! A32   A(10,11,15)           135.0            estimate D2E/DX2                !
 ! A33   A(13,11,15)           135.0            estimate D2E/DX2                !
 ! A34   A(4,12,18)            135.0            estimate D2E/DX2                !
 ! A35   A(4,12,21)            135.0            estimate D2E/DX2                !
 ! A36   A(18,12,21)            90.0            estimate D2E/DX2                !
 ! A37   A(11,13,14)            90.0            estimate D2E/DX2                !
 ! A38   A(11,13,43)           135.0            estimate D2E/DX2                !
 ! A39   A(14,13,43)           135.0            estimate D2E/DX2                !
 ! A40   A(13,14,16)           135.0            estimate D2E/DX2                !
 ! A41   A(13,14,44)            90.0            estimate D2E/DX2                !
 ! A42   A(16,14,44)           135.0            estimate D2E/DX2                !
 ! A43   A(11,15,21)           135.0            estimate D2E/DX2                !
 ! A44   A(11,15,23)           135.0            estimate D2E/DX2                !
 ! A45   A(21,15,23)            90.0            estimate D2E/DX2                !
 ! A46   A(14,16,23)           135.0            estimate D2E/DX2                !
 ! A47   A(14,16,45)           135.0            estimate D2E/DX2                !
 ! A48   A(23,16,45)            90.0            estimate D2E/DX2                !
 ! A49   A(7,17,19)             90.0            estimate D2E/DX2                !
 ! A50   A(7,17,20)            135.0            estimate D2E/DX2                !
 ! A51   A(19,17,20)           135.0            estimate D2E/DX2                !
 ! A52   A(7,18,12)             90.0            estimate D2E/DX2                !
 ! A53   A(7,18,22)            135.0            estimate D2E/DX2                !
 ! A54   A(12,18,22)           135.0            estimate D2E/DX2                !
 ! A55   A(8,19,17)            135.0            estimate D2E/DX2                !
 ! A56   A(8,19,41)            135.0            estimate D2E/DX2                !
 ! A57   A(17,19,41)            90.0            estimate D2E/DX2                !
 ! A58   A(17,20,25)           135.0            estimate D2E/DX2                !
 ! A59   A(17,20,46)           135.0            estimate D2E/DX2                !
 ! A60   A(25,20,46)            90.0            estimate D2E/DX2                !
 ! A61   A(12,21,15)            90.0            estimate D2E/DX2                !
 ! A62   A(12,21,24)           135.0            estimate D2E/DX2                !
 ! A63   A(15,21,24)           135.0            estimate D2E/DX2                !
 ! A64   A(18,22,25)           135.0            estimate D2E/DX2                !
 ! A65   A(18,22,26)           135.0            estimate D2E/DX2                !
 ! A66   A(25,22,26)            90.0            estimate D2E/DX2                !
 ! A67   A(15,23,16)            90.0            estimate D2E/DX2                !
 ! A68   A(15,23,30)           135.0            estimate D2E/DX2                !
 ! A69   A(16,23,30)           135.0            estimate D2E/DX2                !
 ! A70   A(21,24,26)           135.0            estimate D2E/DX2                !
 ! A71   A(21,24,28)           135.0            estimate D2E/DX2                !
 ! A72   A(26,24,28)            90.0            estimate D2E/DX2                !
 ! A73   A(20,25,22)            90.0            estimate D2E/DX2                !
 ! A74   A(20,25,27)           135.0            estimate D2E/DX2                !
 ! A75   A(22,25,27)           135.0            estimate D2E/DX2                !
 ! A76   A(22,26,24)            90.0            estimate D2E/DX2                !
 ! A77   A(22,26,29)           135.0            estimate D2E/DX2                !
 ! A78   A(24,26,29)           135.0            estimate D2E/DX2                !
 ! A79   A(25,27,34)           135.0            estimate D2E/DX2                !
 ! A80   A(25,27,48)           135.0            estimate D2E/DX2                !
 ! A81   A(34,27,48)            90.0            estimate D2E/DX2                !
 ! A82   A(24,28,30)            90.0            estimate D2E/DX2                !
 ! A83   A(24,28,32)           135.0            estimate D2E/DX2                !
 ! A84   A(30,28,32)           135.0            estimate D2E/DX2                !
 ! A85   A(26,29,34)           135.0            estimate D2E/DX2                !
 ! A86   A(26,29,35)           135.0            estimate D2E/DX2                !
 ! A87   A(34,29,35)            90.0            estimate D2E/DX2                !
 ! A88   A(23,30,28)           135.0            estimate D2E/DX2                !
 ! A89   A(23,30,31)           135.0            estimate D2E/DX2                !
 ! A90   A(28,30,31)            90.0            estimate D2E/DX2                !
 ! A91   A(30,31,33)           135.0            estimate D2E/DX2                !
 ! A92   A(30,31,50)            90.0            estimate D2E/DX2                !
 ! A93   A(33,31,50)           135.0            estimate D2E/DX2                !
 ! A94   A(28,32,35)           135.0            estimate D2E/DX2                !
 ! A95   A(28,32,36)           135.0            estimate D2E/DX2                !
 ! A96   A(35,32,36)            90.0            estimate D2E/DX2                !
 ! A97   A(31,33,36)           135.0            estimate D2E/DX2                !
 ! A98   A(31,33,51)           135.0            estimate D2E/DX2                !
 ! A99   A(36,33,51)            90.0            estimate D2E/DX2                !
 ! A100  A(27,34,29)            90.0            estimate D2E/DX2                !
 ! A101  A(27,34,47)           135.0            estimate D2E/DX2                !
 ! A102  A(29,34,47)           135.0            estimate D2E/DX2                !
 ! A103  A(29,35,32)            90.0            estimate D2E/DX2                !
 ! A104  A(29,35,49)           135.0            estimate D2E/DX2                !
 ! A105  A(32,35,49)           135.0            estimate D2E/DX2                !
 ! A106  A(32,36,33)            90.0            estimate D2E/DX2                !
 ! A107  A(32,36,52)           135.0            estimate D2E/DX2                !
 ! A108  A(33,36,52)           135.0            estimate D2E/DX2                !
 ! D1    D(3,1,2,4)              0.0            estimate D2E/DX2                !
 ! D2    D(3,1,2,5)            180.0            estimate D2E/DX2                !
 ! D3    D(39,1,2,4)           180.0            estimate D2E/DX2                !
 ! D4    D(39,1,2,5)             0.0            estimate D2E/DX2                !
 ! D5    D(2,1,3,9)              0.0            estimate D2E/DX2                !
 ! D6    D(2,1,3,37)           180.0            estimate D2E/DX2                !
 ! D7    D(39,1,3,9)           180.0            estimate D2E/DX2                !
 ! D8    D(39,1,3,37)            0.0            estimate D2E/DX2                !
 ! D9    D(1,2,4,10)             0.0            estimate D2E/DX2                !
 ! D10   D(1,2,4,12)           180.0            estimate D2E/DX2                !
 ! D11   D(5,2,4,10)           180.0            estimate D2E/DX2                !
 ! D12   D(5,2,4,12)             0.0            estimate D2E/DX2                !
 ! D13   D(1,2,5,6)              0.0            estimate D2E/DX2                !
 ! D14   D(1,2,5,7)            180.0            estimate D2E/DX2                !
 ! D15   D(4,2,5,6)            180.0            estimate D2E/DX2                !
 ! D16   D(4,2,5,7)              0.0            estimate D2E/DX2                !
 ! D17   D(1,3,9,10)             0.0            estimate D2E/DX2                !
 ! D18   D(1,3,9,38)           180.0            estimate D2E/DX2                !
 ! D19   D(37,3,9,10)          180.0            estimate D2E/DX2                !
 ! D20   D(37,3,9,38)            0.0            estimate D2E/DX2                !
 ! D21   D(2,4,10,9)             0.0            estimate D2E/DX2                !
 ! D22   D(2,4,10,11)          180.0            estimate D2E/DX2                !
 ! D23   D(12,4,10,9)          180.0            estimate D2E/DX2                !
 ! D24   D(12,4,10,11)           0.0            estimate D2E/DX2                !
 ! D25   D(2,4,12,18)            0.0            estimate D2E/DX2                !
 ! D26   D(2,4,12,21)          180.0            estimate D2E/DX2                !
 ! D27   D(10,4,12,18)         180.0            estimate D2E/DX2                !
 ! D28   D(10,4,12,21)           0.0            estimate D2E/DX2                !
 ! D29   D(2,5,6,8)            180.0            estimate D2E/DX2                !
 ! D30   D(2,5,6,40)             0.0            estimate D2E/DX2                !
 ! D31   D(7,5,6,8)              0.0            estimate D2E/DX2                !
 ! D32   D(7,5,6,40)           180.0            estimate D2E/DX2                !
 ! D33   D(2,5,7,17)           180.0            estimate D2E/DX2                !
 ! D34   D(2,5,7,18)             0.0            estimate D2E/DX2                !
 ! D35   D(6,5,7,17)             0.0            estimate D2E/DX2                !
 ! D36   D(6,5,7,18)           180.0            estimate D2E/DX2                !
 ! D37   D(5,6,8,19)             0.0            estimate D2E/DX2                !
 ! D38   D(5,6,8,42)           180.0            estimate D2E/DX2                !
 ! D39   D(40,6,8,19)          180.0            estimate D2E/DX2                !
 ! D40   D(40,6,8,42)            0.0            estimate D2E/DX2                !
 ! D41   D(5,7,17,19)            0.0            estimate D2E/DX2                !
 ! D42   D(5,7,17,20)          180.0            estimate D2E/DX2                !
 ! D43   D(18,7,17,19)         180.0            estimate D2E/DX2                !
 ! D44   D(18,7,17,20)           0.0            estimate D2E/DX2                !
 ! D45   D(5,7,18,12)            0.0            estimate D2E/DX2                !
 ! D46   D(5,7,18,22)          180.0            estimate D2E/DX2                !
 ! D47   D(17,7,18,12)         180.0            estimate D2E/DX2                !
 ! D48   D(17,7,18,22)           0.0            estimate D2E/DX2                !
 ! D49   D(6,8,19,17)            0.0            estimate D2E/DX2                !
 ! D50   D(6,8,19,41)          180.0            estimate D2E/DX2                !
 ! D51   D(42,8,19,17)         180.0            estimate D2E/DX2                !
 ! D52   D(42,8,19,41)           0.0            estimate D2E/DX2                !
 ! D53   D(3,9,10,4)             0.0            estimate D2E/DX2                !
 ! D54   D(3,9,10,11)          180.0            estimate D2E/DX2                !
 ! D55   D(38,9,10,4)          180.0            estimate D2E/DX2                !
 ! D56   D(38,9,10,11)           0.0            estimate D2E/DX2                !
 ! D57   D(4,10,11,13)         180.0            estimate D2E/DX2                !
 ! D58   D(4,10,11,15)           0.0            estimate D2E/DX2                !
 ! D59   D(9,10,11,13)           0.0            estimate D2E/DX2                !
 ! D60   D(9,10,11,15)         180.0            estimate D2E/DX2                !
 ! D61   D(10,11,13,14)        180.0            estimate D2E/DX2                !
 ! D62   D(10,11,13,43)          0.0            estimate D2E/DX2                !
 ! D63   D(15,11,13,14)          0.0            estimate D2E/DX2                !
 ! D64   D(15,11,13,43)        180.0            estimate D2E/DX2                !
 ! D65   D(10,11,15,21)          0.0            estimate D2E/DX2                !
 ! D66   D(10,11,15,23)        180.0            estimate D2E/DX2                !
 ! D67   D(13,11,15,21)        180.0            estimate D2E/DX2                !
 ! D68   D(13,11,15,23)          0.0            estimate D2E/DX2                !
 ! D69   D(4,12,18,7)            0.0            estimate D2E/DX2                !
 ! D70   D(4,12,18,22)         180.0            estimate D2E/DX2                !
 ! D71   D(21,12,18,7)         180.0            estimate D2E/DX2                !
 ! D72   D(21,12,18,22)          0.0            estimate D2E/DX2                !
 ! D73   D(4,12,21,15)           0.0            estimate D2E/DX2                !
 ! D74   D(4,12,21,24)         180.0            estimate D2E/DX2                !
 ! D75   D(18,12,21,15)        180.0            estimate D2E/DX2                !
 ! D76   D(18,12,21,24)          0.0            estimate D2E/DX2                !
 ! D77   D(11,13,14,16)          0.0            estimate D2E/DX2                !
 ! D78   D(11,13,14,44)        180.0            estimate D2E/DX2                !
 ! D79   D(43,13,14,16)        180.0            estimate D2E/DX2                !
 ! D80   D(43,13,14,44)          0.0            estimate D2E/DX2                !
 ! D81   D(13,14,16,23)          0.0            estimate D2E/DX2                !
 ! D82   D(13,14,16,45)        180.0            estimate D2E/DX2                !
 ! D83   D(44,14,16,23)        180.0            estimate D2E/DX2                !
 ! D84   D(44,14,16,45)          0.0            estimate D2E/DX2                !
 ! D85   D(11,15,21,12)          0.0            estimate D2E/DX2                !
 ! D86   D(11,15,21,24)        180.0            estimate D2E/DX2                !
 ! D87   D(23,15,21,12)        180.0            estimate D2E/DX2                !
 ! D88   D(23,15,21,24)          0.0            estimate D2E/DX2                !
 ! D89   D(11,15,23,16)          0.0            estimate D2E/DX2                !
 ! D90   D(11,15,23,30)        180.0            estimate D2E/DX2                !
 ! D91   D(21,15,23,16)        180.0            estimate D2E/DX2                !
 ! D92   D(21,15,23,30)          0.0            estimate D2E/DX2                !
 ! D93   D(14,16,23,15)          0.0            estimate D2E/DX2                !
 ! D94   D(14,16,23,30)        180.0            estimate D2E/DX2                !
 ! D95   D(45,16,23,15)        180.0            estimate D2E/DX2                !
 ! D96   D(45,16,23,30)          0.0            estimate D2E/DX2                !
 ! D97   D(7,17,19,8)            0.0            estimate D2E/DX2                !
 ! D98   D(7,17,19,41)         180.0            estimate D2E/DX2                !
 ! D99   D(20,17,19,8)         180.0            estimate D2E/DX2                !
 ! D100  D(20,17,19,41)          0.0            estimate D2E/DX2                !
 ! D101  D(7,17,20,25)           0.0            estimate D2E/DX2                !
 ! D102  D(7,17,20,46)         180.0            estimate D2E/DX2                !
 ! D103  D(19,17,20,25)        180.0            estimate D2E/DX2                !
 ! D104  D(19,17,20,46)          0.0            estimate D2E/DX2                !
 ! D105  D(7,18,22,25)           0.0            estimate D2E/DX2                !
 ! D106  D(7,18,22,26)         180.0            estimate D2E/DX2                !
 ! D107  D(12,18,22,25)        180.0            estimate D2E/DX2                !
 ! D108  D(12,18,22,26)          0.0            estimate D2E/DX2                !
 ! D109  D(17,20,25,22)          0.0            estimate D2E/DX2                !
 ! D110  D(17,20,25,27)        180.0            estimate D2E/DX2                !
 ! D111  D(46,20,25,22)        180.0            estimate D2E/DX2                !
 ! D112  D(46,20,25,27)          0.0            estimate D2E/DX2                !
 ! D113  D(12,21,24,26)          0.0            estimate D2E/DX2                !
 ! D114  D(12,21,24,28)        180.0            estimate D2E/DX2                !
 ! D115  D(15,21,24,26)        180.0            estimate D2E/DX2                !
 ! D116  D(15,21,24,28)          0.0            estimate D2E/DX2                !
 ! D117  D(18,22,25,20)          0.0            estimate D2E/DX2                !
 ! D118  D(18,22,25,27)        180.0            estimate D2E/DX2                !
 ! D119  D(26,22,25,20)        180.0            estimate D2E/DX2                !
 ! D120  D(26,22,25,27)          0.0            estimate D2E/DX2                !
 ! D121  D(18,22,26,24)          0.0            estimate D2E/DX2                !
 ! D122  D(18,22,26,29)        180.0            estimate D2E/DX2                !
 ! D123  D(25,22,26,24)        180.0            estimate D2E/DX2                !
 ! D124  D(25,22,26,29)          0.0            estimate D2E/DX2                !
 ! D125  D(15,23,30,28)          0.0            estimate D2E/DX2                !
 ! D126  D(15,23,30,31)        180.0            estimate D2E/DX2                !
 ! D127  D(16,23,30,28)        180.0            estimate D2E/DX2                !
 ! D128  D(16,23,30,31)          0.0            estimate D2E/DX2                !
 ! D129  D(21,24,26,22)          0.0            estimate D2E/DX2                !
 ! D130  D(21,24,26,29)        180.0            estimate D2E/DX2                !
 ! D131  D(28,24,26,22)        180.0            estimate D2E/DX2                !
 ! D132  D(28,24,26,29)          0.0            estimate D2E/DX2                !
 ! D133  D(21,24,28,30)          0.0            estimate D2E/DX2                !
 ! D134  D(21,24,28,32)        180.0            estimate D2E/DX2                !
 ! D135  D(26,24,28,30)        180.0            estimate D2E/DX2                !
 ! D136  D(26,24,28,32)          0.0            estimate D2E/DX2                !
 ! D137  D(20,25,27,34)        180.0            estimate D2E/DX2                !
 ! D138  D(20,25,27,48)          0.0            estimate D2E/DX2                !
 ! D139  D(22,25,27,34)          0.0            estimate D2E/DX2                !
 ! D140  D(22,25,27,48)        180.0            estimate D2E/DX2                !
 ! D141  D(22,26,29,34)          0.0            estimate D2E/DX2                !
 ! D142  D(22,26,29,35)        180.0            estimate D2E/DX2                !
 ! D143  D(24,26,29,34)        180.0            estimate D2E/DX2                !
 ! D144  D(24,26,29,35)          0.0            estimate D2E/DX2                !
 ! D145  D(25,27,34,29)          0.0            estimate D2E/DX2                !
 ! D146  D(25,27,34,47)        180.0            estimate D2E/DX2                !
 ! D147  D(48,27,34,29)        180.0            estimate D2E/DX2                !
 ! D148  D(48,27,34,47)          0.0            estimate D2E/DX2                !
 ! D149  D(24,28,30,23)          0.0            estimate D2E/DX2                !
 ! D150  D(24,28,30,31)        180.0            estimate D2E/DX2                !
 ! D151  D(32,28,30,23)        180.0            estimate D2E/DX2                !
 ! D152  D(32,28,30,31)          0.0            estimate D2E/DX2                !
 ! D153  D(24,28,32,35)          0.0            estimate D2E/DX2                !
 ! D154  D(24,28,32,36)        180.0            estimate D2E/DX2                !
 ! D155  D(30,28,32,35)        180.0            estimate D2E/DX2                !
 ! D156  D(30,28,32,36)          0.0            estimate D2E/DX2                !
 ! D157  D(26,29,34,27)          0.0            estimate D2E/DX2                !
 ! D158  D(26,29,34,47)        180.0            estimate D2E/DX2                !
 ! D159  D(35,29,34,27)        180.0            estimate D2E/DX2                !
 ! D160  D(35,29,34,47)          0.0            estimate D2E/DX2                !
 ! D161  D(26,29,35,32)          0.0            estimate D2E/DX2                !
 ! D162  D(26,29,35,49)        180.0            estimate D2E/DX2                !
 ! D163  D(34,29,35,32)        180.0            estimate D2E/DX2                !
 ! D164  D(34,29,35,49)          0.0            estimate D2E/DX2                !
 ! D165  D(23,30,31,33)        180.0            estimate D2E/DX2                !
 ! D166  D(23,30,31,50)          0.0            estimate D2E/DX2                !
 ! D167  D(28,30,31,33)          0.0            estimate D2E/DX2                !
 ! D168  D(28,30,31,50)        180.0            estimate D2E/DX2                !
 ! D169  D(30,31,33,36)          0.0            estimate D2E/DX2                !
 ! D170  D(30,31,33,51)        180.0            estimate D2E/DX2                !
 ! D171  D(50,31,33,36)        180.0            estimate D2E/DX2                !
 ! D172  D(50,31,33,51)          0.0            estimate D2E/DX2                !
 ! D173  D(28,32,35,29)          0.0            estimate D2E/DX2                !
 ! D174  D(28,32,35,49)        180.0            estimate D2E/DX2                !
 ! D175  D(36,32,35,29)        180.0            estimate D2E/DX2                !
 ! D176  D(36,32,35,49)          0.0            estimate D2E/DX2                !
 ! D177  D(28,32,36,33)          0.0            estimate D2E/DX2                !
 ! D178  D(28,32,36,52)        180.0            estimate D2E/DX2                !
 ! D179  D(35,32,36,33)        180.0            estimate D2E/DX2                !
 ! D180  D(35,32,36,52)          0.0            estimate D2E/DX2                !
 ! D181  D(31,33,36,32)          0.0            estimate D2E/DX2                !
 ! D182  D(31,33,36,52)        180.0            estimate D2E/DX2                !
 ! D183  D(51,33,36,32)        180.0            estimate D2E/DX2                !
 ! D184  D(51,33,36,52)          0.0            estimate D2E/DX2                !
 --------------------------------------------------------------------------------
 Trust Radius=3.00D-01 FncErr=1.00D-07 GrdErr=1.00D-06 EigMax=2.50D+02 EigMin=1.00D-04
 Number of steps in this run=    312 maximum allowed number of steps=    312.
 GradGradGradGradGradGradGradGradGradGradGradGradGradGradGradGradGradGrad

 Stoichiometry    C36H16
 Framework group  CS[SG(C36H16)]
 Deg. of freedom   101
 Full point group                 CS      NOp   2
 Largest Abelian subgroup         CS      NOp   2
 Largest concise Abelian subgroup C1      NOp   1
                         Standard orientation:                         
 ---------------------------------------------------------------------
 Center     Atomic      Atomic             Coordinates (Angstroms)
 Number     Number       Type             X           Y           Z
 ---------------------------------------------------------------------
      1          6           0       -1.310345   -4.755172    0.000000
      2          6           0       -1.310345   -3.355172    0.000000
      3          6           0       -0.310345   -5.755172    0.000000
      4          6           0       -0.310345   -2.355172    0.000000
      5          6           0       -2.310345   -2.355172    0.000000
      6          6           0       -3.310345   -3.355172    0.000000
      7          6           0       -2.310345   -0.955172    0.000000
      8          6           0       -4.310345   -2.355172    0.000000
      9          6           0        0.689655   -4.755172    0.000000
     10          6           0        0.689655   -3.355172    0.000000
     11          6           0        1.689655   -2.355172    0.000000
     12          6           0       -0.310345   -0.955172    0.000000
     13          6           0        2.689655   -3.355172    0.000000
     14          6           0        3.689655   -2.355172    0.000000
     15          6           0        1.689655   -0.955172    0.000000
     16          6           0        3.689655   -0.955172    0.000000
     17          6           0       -3.310345    0.044828    0.000000
     18          6           0       -1.310345    0.044828    0.000000
     19          6           0       -4.310345   -0.955172    0.000000
     20          6           0       -3.310345    1.444828    0.000000
     21          6           0        0.689655    0.044828    0.000000
     22          6           0       -1.310345    1.444828    0.000000
     23          6           0        2.689655    0.044828    0.000000
     24          6           0        0.689655    1.444828    0.000000
     25          6           0       -2.310345    2.444828    0.000000
     26          6           0       -0.310345    2.444828    0.000000
     27          6           0       -2.310345    3.844828    0.000000
     28          6           0        1.689655    2.444828    0.000000
     29          6           0       -0.310345    3.844828    0.000000
     30          6           0        2.689655    1.444828    0.000000
     31          6           0        3.689655    2.444828    0.000000
     32          6           0        1.689655    3.844828    0.000000
     33          6           0        3.689655    3.844828    0.000000
     34          6           0       -1.310345    4.844828    0.000000
     35          6           0        0.689655    4.844828    0.000000
     36          6           0        2.689655    4.844828    0.000000
     37          1           0       -0.310345   -6.855172    0.000000
     38          1           0        1.369655   -5.435172    0.000000
     39          1           0       -1.990345   -5.435172    0.000000
     40          1           0       -3.310345   -4.455172    0.000000
     41          1           0       -4.990345   -0.275172    0.000000
     42          1           0       -4.990345   -3.035172    0.000000
     43          1           0        2.689655   -4.455172    0.000000
     44          1           0        4.369655   -3.035172    0.000000
     45          1           0        4.369655   -0.275172    0.000000
     46          1           0       -3.990345    2.124828    0.000000
     47          1           0       -1.310345    5.944828    0.000000
     48          1           0       -2.990345    4.524828    0.000000
     49          1           0        0.689655    5.944828    0.000000
     50          1           0        4.369655    1.764828    0.000000
     51          1           0        4.369655    4.524828    0.000000
     52          1           0        2.689655    5.944828    0.000000
 ---------------------------------------------------------------------
 Rotational constants (GHZ):           0.2096470           0.1181248           0.0755541
 Standard basis: 6-31G (6D, 7F)
 There are   284 symmetry adapted cartesian basis functions of A'  symmetry.
 There are    72 symmetry adapted cartesian basis functions of A"  symmetry.
 There are   284 symmetry adapted basis functions of A'  symmetry.
 There are    72 symmetry adapted basis functions of A"  symmetry.
   356 basis functions,   856 primitive gaussians,   356 cartesian basis functions
   116 alpha electrons      116 beta electrons
       nuclear repulsion energy      3572.4352720791 Hartrees.
 NAtoms=   52 NActive=   52 NUniq=   52 SFac= 1.00D+00 NAtFMM=   60 NAOKFM=F Big=F
 Integral buffers will be    131072 words long.
 Raffenetti 2 integral format.
 Two-electron integral symmetry is turned on.
 One-electron integrals computed using PRISM.
 NBasis=   356 RedAO= T EigKep=  8.96D-05  NBF=   284    72
 NBsUse=   356 1.00D-06 EigRej= -1.00D+00 NBFU=   284    72
 ExpMin= 1.61D-01 ExpMax= 3.05D+03 ExpMxC= 4.57D+02 IAcc=3 IRadAn=         5 AccDes= 0.00D+00
 Harris functional with IExCor=  402 and IRadAn=       5 diagonalized for initial guess.
 HarFok:  IExCor=  402 AccDes= 0.00D+00 IRadAn=         5 IDoV= 1 UseB2=F ITyADJ=14
 ICtDFT=  3500011 ScaDFX=  1.000000  1.000000  1.000000  1.000000
 FoFCou: FMM=F IPFlag=           0 FMFlag=      100000 FMFlg1=           0
         NFxFlg=           0 DoJE=T BraDBF=F KetDBF=T FulRan=T
         wScrn=  0.000000 ICntrl=       500 IOpCl=  0 I1Cent=   200000004 NGrid=           0
         NMat0=    1 NMatS0=      1 NMatT0=    0 NMatD0=    1 NMtDS0=    0 NMtDT0=    0
 Petite list used in FoFCou.
 Initial guess orbital symmetries:
       Occupied  (A') (A') (A') (A') (A') (A') (A') (A') (A') (A')
                 (A') (A') (A') (A') (A') (A') (A') (A') (A') (A')
                 (A') (A') (A') (A') (A') (A') (A') (A') (A') (A')
                 (A') (A') (A') (A') (A') (A') (A') (A') (A') (A')
                 (A') (A') (A') (A') (A') (A') (A') (A') (A') (A')
                 (A') (A') (A') (A') (A') (A') (A') (A') (A') (A')
                 (A') (A') (A') (A') (A') (A') (A') (A') (A') (A')
                 (A') (A') (A') (A') (A') (A') (A') (A') (A') (A')
                 (A') (A') (A') (A') (A") (A') (A') (A") (A') (A")
                 (A') (A") (A") (A') (A") (A') (A") (A") (A") (A')
                 (A") (A") (A') (A') (A") (A") (A') (A") (A") (A')
                 (A") (A") (A') (A") (A') (A')
       Virtual   (A") (A") (A") (A") (A") (A") (A") (A") (A") (A")
                 (A") (A") (A') (A') (A") (A') (A') (A') (A") (A')
                 (A') (A') (A") (A") (A') (A') (A') (A') (A') (A')
                 (A') (A') (A") (A') (A') (A') (A') (A") (A') (A')
                 (A') (A') (A') (A') (A') (A') (A') (A') (A') (A')
                 (A') (A') (A') (A') (A') (A') (A') (A') (A') (A')
                 (A') (A') (A') (A') (A') (A') (A') (A') (A') (A')
                 (A') (A") (A') (A') (A") (A") (A') (A') (A") (A")
                 (A') (A") (A') (A') (A") (A') (A") (A') (A") (A')
                 (A") (A') (A") (A') (A") (A') (A") (A") (A') (A')
                 (A') (A") (A') (A") (A') (A') (A") (A') (A') (A")
                 (A") (A') (A") (A") (A') (A') (A') (A") (A") (A')
                 (A') (A") (A") (A") (A') (A") (A') (A') (A') (A')
                 (A") (A') (A') (A") (A') (A') (A") (A') (A') (A")
                 (A') (A') (A') (A') (A') (A') (A') (A") (A") (A')
                 (A') (A') (A') (A') (A') (A') (A') (A") (A') (A')
                 (A') (A') (A') (A') (A') (A') (A') (A') (A') (A')
                 (A") (A') (A") (A') (A') (A') (A') (A') (A') (A')
                 (A') (A') (A') (A') (A') (A') (A') (A') (A') (A')
                 (A') (A') (A') (A') (A') (A') (A') (A') (A') (A')
                 (A') (A') (A') (A') (A') (A') (A') (A') (A') (A')
                 (A') (A') (A') (A') (A') (A') (A') (A') (A') (A')
                 (A') (A') (A') (A') (A') (A') (A') (A') (A') (A')
                 (A') (A') (A') (A') (A') (A') (A') (A') (A') (A')
 The electronic state of the initial guess is 1-A'.
 Requested convergence on RMS density matrix=1.00D-08 within 128 cycles.
 Requested convergence on MAX density matrix=1.00D-06.
 Requested convergence on             energy=1.00D-06.
 No special actions if energy rises.
 Integral accuracy reduced to 1.0D-05 until final iterations.
 EnCoef did     3 forward-backward iterations
 EnCoef did     3 forward-backward iterations
 Initial convergence to 2.7D-05 achieved.  Increase integral accuracy.
 SCF Done:  E(RB3LYP) =  -1378.90748608     A.U. after   34 cycles
            NFock= 34  Conv=0.60D-08     -V/T= 1.9993

 **********************************************************************

            Population analysis using the SCF density.

 **********************************************************************

 Orbital symmetries:
       Occupied  (A') (A') (A') (A') (A') (A') (A') (A') (A') (A')
                 (A') (A') (A') (A') (A') (A') (A') (A') (A') (A')
                 (A') (A') (A') (A') (A') (A') (A') (A') (A') (A')
                 (A') (A') (A') (A') (A') (A') (A') (A') (A') (A')
                 (A') (A') (A') (A') (A') (A') (A') (A') (A') (A')
                 (A') (A') (A') (A') (A') (A') (A') (A') (A') (A')
                 (A') (A') (A') (A') (A') (A') (A') (A') (A') (A')
                 (A') (A') (A') (A') (A') (A') (A') (A') (A') (A')
                 (A") (A') (A') (A') (A') (A') (A") (A") (A') (A')
                 (A") (A") (A') (A") (A") (A") (A') (A') (A") (A")
                 (A') (A") (A") (A") (A') (A') (A") (A") (A") (A')
                 (A') (A") (A') (A") (A') (A")
       Virtual   (A") (A') (A") (A") (A") (A") (A") (A") (A") (A")
                 (A') (A") (A') (A') (A') (A') (A") (A') (A') (A")
                 (A') (A") (A') (A') (A') (A') (A') (A") (A') (A')
                 (A") (A') (A') (A') (A') (A') (A') (A") (A') (A')
                 (A") (A') (A') (A') (A') (A') (A') (A') (A') (A')
                 (A') (A') (A') (A') (A') (A') (A') (A') (A') (A')
                 (A') (A') (A') (A') (A') (A') (A') (A") (A') (A")
                 (A') (A") (A') (A") (A") (A') (A") (A') (A') (A')
                 (A') (A") (A") (A') (A') (A') (A") (A') (A') (A')
                 (A") (A") (A") (A') (A') (A') (A") (A') (A") (A')
                 (A") (A") (A') (A') (A') (A') (A") (A') (A") (A")
                 (A') (A") (A") (A') (A") (A") (A') (A') (A") (A')
                 (A") (A') (A") (A") (A') (A') (A') (A") (A") (A')
                 (A') (A") (A') (A') (A') (A") (A') (A') (A') (A')
                 (A') (A") (A') (A") (A') (A') (A') (A') (A') (A')
                 (A') (A') (A") (A') (A') (A') (A') (A') (A') (A')
                 (A') (A') (A') (A') (A') (A') (A') (A") (A") (A')
                 (A') (A') (A') (A') (A') (A') (A') (A') (A') (A')
                 (A') (A') (A') (A') (A') (A') (A') (A') (A') (A')
                 (A') (A') (A') (A') (A') (A') (A') (A') (A') (A')
                 (A') (A') (A') (A') (A') (A') (A') (A') (A') (A')
                 (A') (A') (A') (A') (A') (A') (A') (A') (A') (A')
                 (A') (A') (A') (A') (A') (A') (A') (A') (A') (A')
                 (A') (A') (A') (A') (A') (A') (A') (A') (A') (A')
 The electronic state is 1-A'.
 Alpha  occ. eigenvalues --  -10.21846 -10.21683 -10.21643 -10.21522 -10.21490
 Alpha  occ. eigenvalues --  -10.21464 -10.21353 -10.21190 -10.21084 -10.21069
 Alpha  occ. eigenvalues --  -10.20789 -10.20774 -10.20557 -10.20401 -10.20367
 Alpha  occ. eigenvalues --  -10.20357 -10.20331 -10.20330 -10.20272 -10.20130
 Alpha  occ. eigenvalues --  -10.20088 -10.20007 -10.19911 -10.19893 -10.19730
 Alpha  occ. eigenvalues --  -10.18965 -10.18453 -10.18308 -10.18109 -10.17897
 Alpha  occ. eigenvalues --  -10.17837 -10.17801 -10.17736 -10.17653 -10.17534
 Alpha  occ. eigenvalues --  -10.17361  -0.97306  -0.94581  -0.93442  -0.91168
 Alpha  occ. eigenvalues --   -0.90187  -0.87771  -0.86964  -0.86356  -0.83852
 Alpha  occ. eigenvalues --   -0.82914  -0.82254  -0.80497  -0.79588  -0.76162
 Alpha  occ. eigenvalues --   -0.75183  -0.73049  -0.72539  -0.71587  -0.70485
 Alpha  occ. eigenvalues --   -0.68625  -0.66939  -0.66415  -0.65811  -0.63703
 Alpha  occ. eigenvalues --   -0.63215  -0.62346  -0.60904  -0.59130  -0.58432
 Alpha  occ. eigenvalues --   -0.57944  -0.55861  -0.54940  -0.54261  -0.53693
 Alpha  occ. eigenvalues --   -0.52967  -0.52293  -0.51326  -0.50867  -0.50330
 Alpha  occ. eigenvalues --   -0.49316  -0.48946  -0.48339  -0.48020  -0.47260
 Alpha  occ. eigenvalues --   -0.47146  -0.46032  -0.45427  -0.45207  -0.44316
 Alpha  occ. eigenvalues --   -0.43862  -0.43846  -0.42639  -0.42543  -0.40411
 Alpha  occ. eigenvalues --   -0.39473  -0.38591  -0.38025  -0.36133  -0.34026
 Alpha  occ. eigenvalues --   -0.33642  -0.33109  -0.31933  -0.31057  -0.29478
 Alpha  occ. eigenvalues --   -0.28725  -0.28672  -0.27576  -0.25645  -0.25525
 Alpha  occ. eigenvalues --   -0.24903  -0.23256  -0.21952  -0.21734  -0.21116
 Alpha  occ. eigenvalues --   -0.20600  -0.19138  -0.17742  -0.16586  -0.13761
 Alpha  occ. eigenvalues --   -0.12592
 Alpha virt. eigenvalues --   -0.08802  -0.07796  -0.07377  -0.03531  -0.02524
 Alpha virt. eigenvalues --   -0.00221   0.01259   0.02545   0.03981   0.04609
 Alpha virt. eigenvalues --    0.04718   0.06600   0.06626   0.07381   0.08712
 Alpha virt. eigenvalues --    0.08843   0.09172   0.10098   0.10974   0.11165
 Alpha virt. eigenvalues --    0.12602   0.13432   0.13899   0.14423   0.14991
 Alpha virt. eigenvalues --    0.15174   0.16119   0.16232   0.16366   0.16844
 Alpha virt. eigenvalues --    0.17549   0.18110   0.18198   0.19482   0.20381
 Alpha virt. eigenvalues --    0.21222   0.21950   0.22206   0.22608   0.23793
 Alpha virt. eigenvalues --    0.24719   0.24783   0.25466   0.26397   0.28034
 Alpha virt. eigenvalues --    0.28422   0.29408   0.30348   0.30990   0.32003
 Alpha virt. eigenvalues --    0.32559   0.33185   0.34053   0.34625   0.36344
 Alpha virt. eigenvalues --    0.37607   0.37988   0.39349   0.39814   0.41184
 Alpha virt. eigenvalues --    0.42600   0.43202   0.44518   0.46115   0.47103
 Alpha virt. eigenvalues --    0.48455   0.49027   0.49166   0.50444   0.50782
 Alpha virt. eigenvalues --    0.50873   0.51108   0.52840   0.53014   0.53363
 Alpha virt. eigenvalues --    0.53545   0.53987   0.54528   0.55236   0.55567
 Alpha virt. eigenvalues --    0.55646   0.55710   0.56303   0.56631   0.56847
 Alpha virt. eigenvalues --    0.57168   0.57244   0.57889   0.58022   0.58778
 Alpha virt. eigenvalues --    0.58850   0.59394   0.59487   0.59577   0.59888
 Alpha virt. eigenvalues --    0.60938   0.61099   0.61527   0.62497   0.63048
 Alpha virt. eigenvalues --    0.63418   0.63882   0.64085   0.64216   0.64843
 Alpha virt. eigenvalues --    0.65207   0.66106   0.66868   0.67687   0.68660
 Alpha virt. eigenvalues --    0.69313   0.69518   0.70260   0.70660   0.72874
 Alpha virt. eigenvalues --    0.73726   0.73728   0.74391   0.74450   0.74909
 Alpha virt. eigenvalues --    0.75648   0.76648   0.76669   0.77757   0.78722
 Alpha virt. eigenvalues --    0.79779   0.79886   0.80121   0.80612   0.81123
 Alpha virt. eigenvalues --    0.81503   0.81923   0.82088   0.82793   0.83211
 Alpha virt. eigenvalues --    0.83761   0.84216   0.85268   0.85482   0.85900
 Alpha virt. eigenvalues --    0.88009   0.88069   0.88792   0.88848   0.89309
 Alpha virt. eigenvalues --    0.89782   0.90026   0.91021   0.91230   0.92121
 Alpha virt. eigenvalues --    0.92692   0.93528   0.93895   0.93959   0.94653
 Alpha virt. eigenvalues --    0.95218   0.95624   0.97105   0.97778   0.98099
 Alpha virt. eigenvalues --    0.99312   0.99654   0.99975   1.00417   1.01445
 Alpha virt. eigenvalues --    1.02101   1.02362   1.02954   1.03724   1.03808
 Alpha virt. eigenvalues --    1.04852   1.05333   1.06817   1.06951   1.07382
 Alpha virt. eigenvalues --    1.08289   1.09365   1.10403   1.11688   1.14396
 Alpha virt. eigenvalues --    1.14815   1.16107   1.17444   1.18697   1.20156
 Alpha virt. eigenvalues --    1.20251   1.21703   1.22574   1.23486   1.24294
 Alpha virt. eigenvalues --    1.25282   1.26688   1.27529   1.28902   1.29579
 Alpha virt. eigenvalues --    1.30038   1.31637   1.31891   1.32500   1.34454
 Alpha virt. eigenvalues --    1.35660   1.37561   1.39083   1.39774   1.40622
 Alpha virt. eigenvalues --    1.41875   1.42823   1.44643   1.46068   1.47491
 Alpha virt. eigenvalues --    1.49029   1.49918   1.53978   1.55959   1.58526
 Alpha virt. eigenvalues --    1.60414   1.64104   1.71779   1.73922   1.75841
 Alpha virt. eigenvalues --    1.78251   1.78694   1.79195   1.80891   1.81774
 Alpha virt. eigenvalues --    1.84560   1.85017   1.87660   1.89048   1.89513
 Alpha virt. eigenvalues --    1.90555   1.92041   1.92947   1.96770   1.97544
 Alpha virt. eigenvalues --    1.99837   2.03648   2.06095   2.08805   2.09738
          Condensed to atoms (all electrons):
 Mulliken charges:
               1
     1  C   -0.236370
     2  C    0.168408
     3  C   -0.125626
     4  C   -0.118810
     5  C   -0.122453
     6  C   -0.093197
     7  C   -0.030770
     8  C   -0.082570
     9  C   -0.231581
    10  C    0.166285
    11  C   -0.103676
    12  C   -0.055729
    13  C   -0.089319
    14  C   -0.083245
    15  C   -0.023067
    16  C   -0.004675
    17  C    0.072945
    18  C   -0.048375
    19  C   -0.058319
    20  C   -0.150563
    21  C   -0.064091
    22  C   -0.097467
    23  C   -0.014508
    24  C   -0.126026
    25  C    0.171258
    26  C   -0.006386
    27  C   -0.173217
    28  C   -0.000948
    29  C   -0.035297
    30  C   -0.005057
    31  C    0.001055
    32  C   -0.018778
    33  C   -0.101469
    34  C   -0.094576
    35  C   -0.152314
    36  C   -0.128275
    37  H    0.182614
    38  H    0.120904
    39  H    0.119860
    40  H    0.217167
    41  H    0.084836
    42  H    0.094246
    43  H    0.219682
    44  H    0.099858
    45  H    0.065191
    46  H    0.090906
    47  H    0.184135
    48  H    0.102117
    49  H    0.185645
    50  H    0.056865
    51  H    0.092958
    52  H    0.179817
 Sum of Mulliken charges =  -0.00000
 Mulliken charges with hydrogens summed into heavy atoms:
               1
     1  C   -0.116510
     2  C    0.168408
     3  C    0.056989
     4  C   -0.118810
     5  C   -0.122453
     6  C    0.123970
     7  C   -0.030770
     8  C    0.011676
     9  C   -0.110677
    10  C    0.166285
    11  C   -0.103676
    12  C   -0.055729
    13  C    0.130363
    14  C    0.016613
    15  C   -0.023067
    16  C    0.060516
    17  C    0.072945
    18  C   -0.048375
    19  C    0.026518
    20  C   -0.059657
    21  C   -0.064091
    22  C   -0.097467
    23  C   -0.014508
    24  C   -0.126026
    25  C    0.171258
    26  C   -0.006386
    27  C   -0.071100
    28  C   -0.000948
    29  C   -0.035297
    30  C   -0.005057
    31  C    0.057920
    32  C   -0.018778
    33  C   -0.008511
    34  C    0.089559
    35  C    0.033331
    36  C    0.051542
 Electronic spatial extent (au):  <R**2>=          13251.8362
 Charge=             -0.0000 electrons
 Dipole moment (field-independent basis, Debye):
    X=              0.3528    Y=              0.8844    Z=              0.0000  Tot=              0.9522
 Quadrupole moment (field-independent basis, Debye-Ang):
   XX=           -206.1484   YY=           -141.2545   ZZ=           -212.6273
   XY=              1.2420   XZ=              0.0000   YZ=              0.0000
 Traceless Quadrupole moment (field-independent basis, Debye-Ang):
   XX=            -19.4716   YY=             45.4222   ZZ=            -25.9506
   XY=              1.2420   XZ=              0.0000   YZ=              0.0000
 Octapole moment (field-independent basis, Debye-Ang**2):
  XXX=             -2.5395  YYY=             58.6911  ZZZ=              0.0000  XYY=              8.0602
  XXY=            -23.0096  XXZ=              0.0000  XZZ=              0.2389  YZZ=              0.4044
  YYZ=              0.0000  XYZ=              0.0000
 Hexadecapole moment (field-independent basis, Debye-Ang**3):
 XXXX=          -7513.6215 YYYY=          -8395.5479 ZZZZ=           -221.9930 XXXY=           -717.0617
 XXXZ=              0.0000 YYYX=           -457.9919 YYYZ=              0.0000 ZZZX=              0.0000
 ZZZY=              0.0000 XXYY=          -2822.8553 XXZZ=          -1322.4037 YYZZ=          -2107.6199
 XXYZ=              0.0000 YYXZ=              0.0000 ZZXY=           -242.0587
 N-N= 3.572435272079D+03 E-N=-1.034790595377D+04  KE= 1.379811256506D+03
 Symmetry A'   KE= 1.337770131600D+03
 Symmetry A"   KE= 4.204112490591D+01
 Calling FoFJK, ICntrl=      2127 FMM=F ISym2X=1 I1Cent= 0 IOpClX= 0 NMat=1 NMatS=1 NMatT=0.
 ***** Axes restored to original set *****
 -------------------------------------------------------------------
 Center     Atomic                   Forces (Hartrees/Bohr)
 Number     Number              X              Y              Z
 -------------------------------------------------------------------
      1        6           0.009538017   -0.000053098   -0.000000000
      2        6           0.020893009    0.051804273   -0.000000000
      3        6           0.002638026    0.127088340   -0.000000000
      4        6           0.002044864   -0.067599366   -0.000000000
      5        6          -0.034551957   -0.088014560   -0.000000000
      6        6          -0.052316085    0.155101456   -0.000000000
      7        6           0.010993712    0.059865872   -0.000000000
      8        6          -0.011550911    0.022758911   -0.000000000
      9        6          -0.009813606   -0.006674176   -0.000000000
     10        6          -0.017452042    0.056408375   -0.000000000
     11        6           0.028424988   -0.070118278   -0.000000000
     12        6           0.012581672    0.027701693   -0.000000000
     13        6           0.057740170    0.148616850   -0.000000000
     14        6           0.008775540    0.014865530   -0.000000000
     15        6          -0.006197812    0.036992409   -0.000000000
     16        6           0.007340769   -0.026066138   -0.000000000
     17        6          -0.043796819   -0.078019729   -0.000000000
     18        6           0.008298670   -0.025261187   -0.000000000
     19        6          -0.017511287   -0.033907645   -0.000000000
     20        6          -0.013276619   -0.009911961   -0.000000000
     21        6          -0.018641582   -0.019345474   -0.000000000
     22        6           0.009566046    0.046723071   -0.000000000
     23        6           0.047429395   -0.094372694   -0.000000000
     24        6          -0.002646652    0.043590454   -0.000000000
     25        6          -0.057573356   -0.098111837   -0.000000000
     26        6           0.003935438   -0.071292588   -0.000000000
     27        6          -0.007118806    0.027997654   -0.000000000
     28        6          -0.007181893   -0.077631255   -0.000000000
     29        6           0.016885670    0.124612738   -0.000000000
     30        6           0.056930799    0.104404458   -0.000000000
     31        6           0.007533171    0.018095156   -0.000000000
     32        6           0.010875434    0.121331963   -0.000000000
     33        6           0.013650899    0.000549080   -0.000000000
     34        6          -0.077710773   -0.138244051   -0.000000000
     35        6          -0.022479517   -0.152047459   -0.000000000
     36        6           0.058211542   -0.144071571   -0.000000000
     37        1           0.000055601    0.021400603   -0.000000000
     38        1           0.141393142   -0.039568593   -0.000000000
     39        1          -0.141514785   -0.039553227   -0.000000000
     40        1          -0.011979995    0.032386750   -0.000000000
     41        1          -0.149204930    0.037881866   -0.000000000
     42        1          -0.152508073   -0.036262629   -0.000000000
     43        1           0.012002037    0.032403265   -0.000000000
     44        1           0.151645741   -0.036576268   -0.000000000
     45        1           0.149996440    0.037226711   -0.000000000
     46        1          -0.148429036    0.039129210   -0.000000000
     47        1          -0.005614590   -0.023241635   -0.000000000
     48        1          -0.152352719    0.036328008   -0.000000000
     49        1          -0.000127794   -0.025569379   -0.000000000
     50        1           0.152132702   -0.035185549   -0.000000000
     51        1           0.154592282    0.034519644   -0.000000000
     52        1           0.005445861   -0.023083990   -0.000000000
 -------------------------------------------------------------------
 Cartesian Forces:  Max     0.155101456 RMS     0.057386770

 GradGradGradGradGradGradGradGradGradGradGradGradGradGradGradGradGradGrad
 Berny optimization.
 FormGI is forming the generalized inverse of G from B-inverse, IUseBI=4.
 Internal  Forces:  Max     0.225477377 RMS     0.074218981
 Search for a local minimum.
 Step number   1 out of a maximum of  312
 All quantities printed in internal units (Hartrees-Bohrs-Radians)
 Mixed Optimization -- RFO/linear search
 Second derivative matrix not updated -- first step.
 ITU=  0
     Eigenvalues ---    0.01901   0.01901   0.01901   0.01901   0.01901
     Eigenvalues ---    0.01901   0.01901   0.01922   0.01925   0.01931
     Eigenvalues ---    0.01939   0.01947   0.01951   0.01959   0.01964
     Eigenvalues ---    0.01967   0.01971   0.01978   0.01982   0.01983
     Eigenvalues ---    0.01987   0.01988   0.01990   0.01994   0.01994
     Eigenvalues ---    0.01996   0.01998   0.02000   0.02001   0.02003
     Eigenvalues ---    0.02005   0.02006   0.02010   0.02012   0.02014
     Eigenvalues ---    0.02014   0.02016   0.02016   0.02018   0.02021
     Eigenvalues ---    0.02025   0.02036   0.02039   0.02043   0.02045
     Eigenvalues ---    0.02046   0.02047   0.02047   0.02048   0.16000
     Eigenvalues ---    0.16000   0.16000   0.16000   0.16000   0.16000
     Eigenvalues ---    0.16000   0.16000   0.16000   0.16000   0.16000
     Eigenvalues ---    0.16000   0.16000   0.16000   0.16000   0.16000
     Eigenvalues ---    0.22109   0.22114   0.22124   0.22259   0.22664
     Eigenvalues ---    0.23354   0.23463   0.23550   0.23601   0.23745
     Eigenvalues ---    0.23845   0.24622   0.24903   0.24948   0.24954
     Eigenvalues ---    0.24992   0.25000   0.25000   0.25000   0.25000
     Eigenvalues ---    0.25000   0.25000   0.25000   0.30129   0.30414
     Eigenvalues ---    0.31474   0.33382   0.33682   0.33682   0.33682
     Eigenvalues ---    0.33682   0.33682   0.33682   0.34405   0.35148
     Eigenvalues ---    0.37041   0.37484   0.38664   0.39005   0.40078
     Eigenvalues ---    0.40373   0.40719   0.40959   0.41128   0.41681
     Eigenvalues ---    0.42323   0.42488   0.42522   0.42638   0.42816
     Eigenvalues ---    0.42925   0.43344   0.43344   0.43344   0.43344
     Eigenvalues ---    0.43344   0.43344   0.43344   0.43344   0.43344
     Eigenvalues ---    0.44027   0.44092   0.44144   0.44317   0.44377
     Eigenvalues ---    0.44606   0.44654   0.44904   0.45087   0.45308
     Eigenvalues ---    0.45408   0.45621   0.45621   0.45621   0.45621
     Eigenvalues ---    0.55117   0.55117   0.55117   0.55117   0.55117
     Eigenvalues ---    0.55117   0.55117   0.55117   0.55117   0.55117
 RFO step:  Lambda=-1.25770981D+00 EMin= 1.90073763D-02
 Linear search not attempted -- first point.
 Maximum step size (   0.300) exceeded in Quadratic search.
    -- Step size scaled by   0.332
 Iteration  1 RMS(Cart)=  0.05566035 RMS(Int)=  0.00020491
 Iteration  2 RMS(Cart)=  0.00038423 RMS(Int)=  0.00002655
 Iteration  3 RMS(Cart)=  0.00000008 RMS(Int)=  0.00002655
 ClnCor:  largest displacement from symmetrization is 8.92D-09 for atom    52.
 Variable       Old X    -DE/DX   Delta X   Delta X   Delta X     New X
                                 (Linear)    (Quad)   (Total)
    R1        2.64562  -0.03259   0.00000  -0.00631  -0.00631   2.63931
    R2        2.67248   0.04995   0.00000   0.00963   0.00964   2.68212
    R3        1.81728   0.12803   0.00000   0.02352   0.02352   1.84081
    R4        2.67248   0.12766   0.00000   0.02527   0.02522   2.69770
    R5        2.67248   0.16692   0.00000   0.03273   0.03273   2.70521
    R6        2.67248   0.04515   0.00000   0.00867   0.00869   2.68116
    R7        2.07870  -0.02140   0.00000  -0.00446  -0.00446   2.07424
    R8        2.67248   0.12392   0.00000   0.02454   0.02448   2.69696
    R9        2.64562  -0.04131   0.00000  -0.00792  -0.00797   2.63764
   R10        2.67248   0.09557   0.00000   0.01879   0.01885   2.69132
   R11        2.64562  -0.03972   0.00000  -0.00754  -0.00744   2.63817
   R12        2.67248   0.05532   0.00000   0.01060   0.01055   2.68303
   R13        2.07870  -0.03239   0.00000  -0.00675  -0.00675   2.07195
   R14        2.67248   0.12167   0.00000   0.02416   0.02418   2.69665
   R15        2.67248   0.11514   0.00000   0.02283   0.02290   2.69538
   R16        2.64562  -0.07655   0.00000  -0.01504  -0.01512   2.63050
   R17        1.81728   0.13348   0.00000   0.02453   0.02453   1.84181
   R18        2.64562  -0.03005   0.00000  -0.00583  -0.00584   2.63978
   R19        1.81728   0.12796   0.00000   0.02351   0.02351   1.84079
   R20        2.67248   0.15871   0.00000   0.03111   0.03111   2.70359
   R21        2.67248   0.10114   0.00000   0.01988   0.01993   2.69241
   R22        2.64562  -0.04887   0.00000  -0.00935  -0.00924   2.63637
   R23        2.67248   0.12428   0.00000   0.02455   0.02454   2.69702
   R24        2.67248   0.11629   0.00000   0.02299   0.02298   2.69546
   R25        2.67248   0.04735   0.00000   0.00905   0.00900   2.68148
   R26        2.07870  -0.03240   0.00000  -0.00675  -0.00675   2.07194
   R27        2.64562  -0.07196   0.00000  -0.01413  -0.01421   2.63141
   R28        1.81728   0.13309   0.00000   0.02445   0.02445   1.84174
   R29        2.67248   0.12344   0.00000   0.02437   0.02442   2.69690
   R30        2.67248   0.11818   0.00000   0.02345   0.02348   2.69596
   R31        2.67248   0.05233   0.00000   0.01028   0.01023   2.68270
   R32        1.81728   0.13239   0.00000   0.02432   0.02432   1.84161
   R33        2.67248   0.05795   0.00000   0.01138   0.01132   2.68380
   R34        2.64562  -0.05279   0.00000  -0.01039  -0.01044   2.63518
   R35        2.64562  -0.05794   0.00000  -0.01109  -0.01104   2.63457
   R36        1.81728   0.13229   0.00000   0.02431   0.02431   1.84159
   R37        2.67248   0.04498   0.00000   0.00865   0.00862   2.68109
   R38        1.81728   0.13262   0.00000   0.02437   0.02437   1.84165
   R39        2.64562  -0.05324   0.00000  -0.01023  -0.01020   2.63542
   R40        2.67248   0.11854   0.00000   0.02346   0.02346   2.69594
   R41        2.67248   0.10289   0.00000   0.02038   0.02041   2.69289
   R42        2.64562  -0.03714   0.00000  -0.00730  -0.00732   2.63829
   R43        2.67248   0.10668   0.00000   0.02108   0.02109   2.69356
   R44        2.67248   0.11505   0.00000   0.02283   0.02287   2.69534
   R45        2.64562  -0.03286   0.00000  -0.00642  -0.00647   2.63915
   R46        2.64562  -0.03433   0.00000  -0.00662  -0.00659   2.63902
   R47        2.67248   0.03457   0.00000   0.00658   0.00655   2.67903
   R48        1.81728   0.13342   0.00000   0.02451   0.02451   1.84180
   R49        2.67248   0.09860   0.00000   0.01942   0.01946   2.69193
   R50        2.64562  -0.03935   0.00000  -0.00755  -0.00748   2.63814
   R51        2.67248   0.11675   0.00000   0.02281   0.02283   2.69531
   R52        2.67248   0.08087   0.00000   0.01570   0.01569   2.68816
   R53        2.67248   0.06511   0.00000   0.01286   0.01282   2.68530
   R54        2.64562  -0.05438   0.00000  -0.01061  -0.01067   2.63495
   R55        1.81728   0.13245   0.00000   0.02434   0.02434   1.84162
   R56        2.67248   0.10511   0.00000   0.02049   0.02049   2.69297
   R57        2.67248   0.10629   0.00000   0.02082   0.02086   2.69334
   R58        2.67248   0.05298   0.00000   0.01026   0.01021   2.68269
   R59        1.81728   0.13372   0.00000   0.02457   0.02457   1.84185
   R60        2.07870  -0.02324   0.00000  -0.00484  -0.00484   2.07385
   R61        2.07870  -0.02557   0.00000  -0.00533  -0.00533   2.07337
   R62        2.07870  -0.02308   0.00000  -0.00481  -0.00481   2.07389
    A1        2.35619  -0.05963   0.00000  -0.01358  -0.01356   2.34263
    A2        2.35619  -0.03569   0.00000  -0.00857  -0.00858   2.34762
    A3        1.57080   0.09533   0.00000   0.02215   0.02214   1.59293
    A4        2.35619  -0.11228   0.00000  -0.02454  -0.02455   2.33165
    A5        2.35619  -0.05961   0.00000  -0.01350  -0.01348   2.34272
    A6        1.57080   0.17189   0.00000   0.03804   0.03803   1.60882
    A7        1.57080   0.16763   0.00000   0.03713   0.03717   1.60797
    A8        2.35619  -0.08376   0.00000  -0.01855  -0.01857   2.33762
    A9        2.35619  -0.08387   0.00000  -0.01858  -0.01860   2.33759
   A10        1.57080   0.17434   0.00000   0.03872   0.03869   1.60948
   A11        2.35619  -0.08706   0.00000  -0.01933  -0.01931   2.33688
   A12        2.35619  -0.08728   0.00000  -0.01939  -0.01937   2.33682
   A13        1.57080   0.22548   0.00000   0.04941   0.04933   1.62012
   A14        2.35619  -0.10366   0.00000  -0.02259  -0.02261   2.33359
   A15        2.35619  -0.12182   0.00000  -0.02682  -0.02672   2.32948
   A16        1.57080   0.19253   0.00000   0.04297   0.04300   1.61379
   A17        2.35619  -0.08381   0.00000  -0.01857  -0.01858   2.33761
   A18        2.35619  -0.10872   0.00000  -0.02440  -0.02442   2.33178
   A19        2.35619  -0.09163   0.00000  -0.02019  -0.02015   2.33605
   A20        2.35619  -0.07143   0.00000  -0.01589  -0.01588   2.34032
   A21        1.57080   0.16306   0.00000   0.03608   0.03603   1.60682
   A22        2.35619  -0.07485   0.00000  -0.01718  -0.01726   2.33893
   A23        1.57080   0.11211   0.00000   0.02610   0.02614   1.59694
   A24        2.35619  -0.03726   0.00000  -0.00892  -0.00888   2.34732
   A25        2.35619  -0.06138   0.00000  -0.01399  -0.01398   2.34221
   A26        1.57080   0.09611   0.00000   0.02233   0.02233   1.59312
   A27        2.35619  -0.03473   0.00000  -0.00834  -0.00835   2.34785
   A28        2.35619  -0.10868   0.00000  -0.02375  -0.02377   2.33242
   A29        1.57080   0.16807   0.00000   0.03718   0.03717   1.60797
   A30        2.35619  -0.05939   0.00000  -0.01343  -0.01340   2.34279
   A31        1.57080   0.21621   0.00000   0.04741   0.04732   1.61812
   A32        2.35619  -0.10004   0.00000  -0.02183  -0.02184   2.33435
   A33        2.35619  -0.11617   0.00000  -0.02558  -0.02548   2.33071
   A34        2.35619  -0.07591   0.00000  -0.01680  -0.01681   2.33938
   A35        2.35619  -0.06950   0.00000  -0.01540  -0.01542   2.34078
   A36        1.57080   0.14541   0.00000   0.03220   0.03223   1.60303
   A37        1.57080   0.18701   0.00000   0.04174   0.04176   1.61256
   A38        2.35619  -0.08103   0.00000  -0.01795  -0.01796   2.33824
   A39        2.35619  -0.10598   0.00000  -0.02379  -0.02381   2.33239
   A40        2.35619  -0.07577   0.00000  -0.01737  -0.01745   2.33875
   A41        1.57080   0.11182   0.00000   0.02602   0.02606   1.59685
   A42        2.35619  -0.03605   0.00000  -0.00865  -0.00861   2.34759
   A43        2.35619  -0.06842   0.00000  -0.01519  -0.01518   2.34102
   A44        2.35619  -0.09175   0.00000  -0.02018  -0.02013   2.33606
   A45        1.57080   0.16017   0.00000   0.03536   0.03531   1.60611
   A46        2.35619  -0.07517   0.00000  -0.01688  -0.01696   2.33924
   A47        2.35619  -0.03487   0.00000  -0.00855  -0.00851   2.34769
   A48        1.57080   0.11004   0.00000   0.02542   0.02547   1.59626
   A49        1.57080   0.17598   0.00000   0.03922   0.03923   1.61003
   A50        2.35619  -0.08456   0.00000  -0.01862  -0.01865   2.33755
   A51        2.35619  -0.09142   0.00000  -0.02060  -0.02058   2.33561
   A52        1.57080   0.16617   0.00000   0.03658   0.03658   1.60738
   A53        2.35619  -0.09340   0.00000  -0.02049  -0.02046   2.33573
   A54        2.35619  -0.07276   0.00000  -0.01609  -0.01612   2.34007
   A55        2.35619  -0.08021   0.00000  -0.01800  -0.01810   2.33810
   A56        2.35619  -0.03142   0.00000  -0.00777  -0.00772   2.34848
   A57        1.57080   0.11163   0.00000   0.02577   0.02582   1.59661
   A58        2.35619  -0.07060   0.00000  -0.01579  -0.01582   2.34037
   A59        2.35619  -0.03493   0.00000  -0.00857  -0.00855   2.34764
   A60        1.57080   0.10552   0.00000   0.02436   0.02437   1.59517
   A61        1.57080   0.15717   0.00000   0.03463   0.03464   1.60543
   A62        2.35619  -0.07142   0.00000  -0.01571  -0.01573   2.34046
   A63        2.35619  -0.08575   0.00000  -0.01892  -0.01890   2.33729
   A64        2.35619  -0.08410   0.00000  -0.01859  -0.01855   2.33764
   A65        2.35619  -0.07884   0.00000  -0.01747  -0.01747   2.33873
   A66        1.57080   0.16295   0.00000   0.03606   0.03602   1.60681
   A67        1.57080   0.17186   0.00000   0.03826   0.03826   1.60905
   A68        2.35619  -0.07492   0.00000  -0.01646  -0.01644   2.33975
   A69        2.35619  -0.09693   0.00000  -0.02180  -0.02182   2.33438
   A70        2.35619  -0.08111   0.00000  -0.01797  -0.01797   2.33822
   A71        2.35619  -0.07910   0.00000  -0.01751  -0.01750   2.33870
   A72        1.57080   0.16021   0.00000   0.03549   0.03547   1.60627
   A73        1.57080   0.16961   0.00000   0.03741   0.03746   1.60825
   A74        2.35619  -0.08445   0.00000  -0.01879  -0.01880   2.33740
   A75        2.35619  -0.08516   0.00000  -0.01862  -0.01866   2.33754
   A76        1.57080   0.15872   0.00000   0.03504   0.03507   1.60586
   A77        2.35619  -0.08500   0.00000  -0.01869  -0.01867   2.33753
   A78        2.35619  -0.07373   0.00000  -0.01636  -0.01640   2.33980
   A79        2.35619  -0.07380   0.00000  -0.01687  -0.01690   2.33930
   A80        2.35619  -0.03765   0.00000  -0.00904  -0.00903   2.34717
   A81        1.57080   0.11144   0.00000   0.02591   0.02592   1.59672
   A82        1.57080   0.16993   0.00000   0.03743   0.03741   1.60821
   A83        2.35619  -0.07551   0.00000  -0.01661  -0.01661   2.33958
   A84        2.35619  -0.09442   0.00000  -0.02082  -0.02080   2.33539
   A85        2.35619  -0.09807   0.00000  -0.02162  -0.02155   2.33464
   A86        2.35619  -0.09609   0.00000  -0.02136  -0.02137   2.33483
   A87        1.57080   0.19416   0.00000   0.04298   0.04292   1.61371
   A88        2.35619  -0.09032   0.00000  -0.01990  -0.01988   2.33631
   A89        2.35619  -0.08333   0.00000  -0.01868  -0.01871   2.33748
   A90        1.57080   0.17366   0.00000   0.03858   0.03860   1.60939
   A91        2.35619  -0.07465   0.00000  -0.01669  -0.01675   2.33945
   A92        1.57080   0.11247   0.00000   0.02596   0.02599   1.59678
   A93        2.35619  -0.03781   0.00000  -0.00927  -0.00924   2.34695
   A94        2.35619  -0.10385   0.00000  -0.02307  -0.02305   2.33315
   A95        2.35619  -0.10349   0.00000  -0.02275  -0.02268   2.33351
   A96        1.57080   0.20733   0.00000   0.04582   0.04573   1.61653
   A97        2.35619  -0.08282   0.00000  -0.01885  -0.01891   2.33729
   A98        2.35619  -0.03574   0.00000  -0.00866  -0.00863   2.34756
   A99        1.57080   0.11856   0.00000   0.02751   0.02754   1.59834
   A100       1.57080   0.17908   0.00000   0.03973   0.03975   1.61055
   A101       2.35619  -0.09538   0.00000  -0.02123  -0.02124   2.33495
   A102       2.35619  -0.08371   0.00000  -0.01850  -0.01851   2.33769
   A103       1.57080   0.18896   0.00000   0.04191   0.04195   1.61275
   A104       2.35619  -0.09461   0.00000  -0.02099  -0.02101   2.33519
   A105       2.35619  -0.09435   0.00000  -0.02092  -0.02095   2.33525
   A106       1.57080   0.18173   0.00000   0.04053   0.04054   1.61134
   A107       2.35619  -0.08520   0.00000  -0.01894  -0.01894   2.33725
   A108       2.35619  -0.09652   0.00000  -0.02159  -0.02160   2.33460
    D1        0.00000  -0.00000   0.00000  -0.00000   0.00000   0.00000
    D2        3.14159  -0.00000   0.00000  -0.00000   0.00000   3.14159
    D3        3.14159   0.00000   0.00000   0.00000   0.00000   3.14159
    D4        0.00000  -0.00000   0.00000  -0.00000   0.00000   0.00000
    D5        0.00000   0.00000   0.00000   0.00000   0.00000   0.00000
    D6        3.14159  -0.00000   0.00000  -0.00000   0.00000   3.14159
    D7        3.14159   0.00000   0.00000   0.00000   0.00000   3.14159
    D8        0.00000  -0.00000   0.00000  -0.00000   0.00000   0.00000
    D9        0.00000  -0.00000   0.00000   0.00000   0.00000   0.00000
   D10        3.14159  -0.00000   0.00000  -0.00000   0.00000   3.14159
   D11        3.14159  -0.00000   0.00000   0.00000   0.00000   3.14159
   D12        0.00000  -0.00000   0.00000   0.00000   0.00000   0.00000
   D13        0.00000   0.00000   0.00000   0.00000   0.00000   0.00000
   D14        3.14159   0.00000   0.00000   0.00000   0.00000   3.14159
   D15        3.14159   0.00000   0.00000   0.00000   0.00000   3.14159
   D16        0.00000   0.00000   0.00000   0.00000   0.00000   0.00000
   D17        0.00000  -0.00000   0.00000  -0.00000   0.00000   0.00000
   D18        3.14159  -0.00000   0.00000  -0.00000   0.00000   3.14159
   D19        3.14159  -0.00000   0.00000   0.00000   0.00000   3.14159
   D20        0.00000  -0.00000   0.00000  -0.00000   0.00000   0.00000
   D21        0.00000   0.00000   0.00000   0.00000   0.00000   0.00000
   D22        3.14159   0.00000   0.00000   0.00000   0.00000   3.14159
   D23        3.14159   0.00000   0.00000   0.00000   0.00000   3.14159
   D24        0.00000   0.00000   0.00000   0.00000   0.00000   0.00000
   D25        0.00000  -0.00000   0.00000  -0.00000   0.00000   0.00000
   D26        3.14159  -0.00000   0.00000  -0.00000   0.00000   3.14159
   D27        3.14159   0.00000   0.00000  -0.00000   0.00000   3.14159
   D28        0.00000  -0.00000   0.00000  -0.00000   0.00000   0.00000
   D29        3.14159  -0.00000   0.00000  -0.00000   0.00000   3.14159
   D30        0.00000  -0.00000   0.00000  -0.00000   0.00000   0.00000
   D31        0.00000   0.00000   0.00000   0.00000   0.00000   0.00000
   D32        3.14159   0.00000   0.00000   0.00000   0.00000   3.14159
   D33        3.14159  -0.00000   0.00000   0.00000   0.00000   3.14159
   D34        0.00000  -0.00000   0.00000  -0.00000   0.00000   0.00000
   D35        0.00000  -0.00000   0.00000  -0.00000   0.00000   0.00000
[...]
 .,0.,0.00061798,0.,0.,0.00973712,0.,0.,0.00261700,0.,0.,0.00512008,0.,
 0.,-0.00007900,0.,0.,0.00374253,0.,0.,0.00003273,0.,0.,-0.00000773,0.,
 0.,-0.00006260,0.,0.,0.00001171,0.,0.,-0.03871841,0.,0.,-0.00227511,0.
 ,0.,0.00000934,0.,0.,0.00000075,0.,0.,0.00000245,0.,0.,0.00000183,0.,0
 .,-0.00002714,0.,0.,-0.00003152,0.,0.,0.00001044,0.,0.,0.00000139,0.,0
 .,0.00000205,0.,0.,0.00000266,0.,0.,0.00035810,0.,0.,0.02566891,-0.000
 01039,0.00000627,0.,0.00001256,0.00000093,0.,0.00000006,0.00000279,0.,
 -0.00003253,-0.00003427,0.,0.00003944,-0.00001595,0.,0.00004241,0.0000
 4161,0.,0.00015550,-0.00001960,0.,-0.00003683,0.00005396,0.,-0.0000000
 3,0.00000235,0.,0.00000543,0.00001859,0.,-0.00000720,0.00000741,0.,0.0
 0006003,0.00003131,0.,-0.00000667,0.00000058,0.,0.00000059,0.00000086,
 0.,0.00001334,0.00001462,0.,0.00000023,0.00001154,0.,0.00020033,0.0002
 7238,0.,-0.00012634,-0.00033055,0.,-0.00009826,0.00001124,0.,0.0010720
 8,-0.00129889,0.,-0.00001116,-0.00000166,0.,0.00099003,-0.00079871,0.,
 -0.00001634,-0.00000621,0.,0.00006780,0.00007491,0.,0.00153844,-0.0032
 7939,0.,0.00020877,-0.00022463,0.,-0.27732986,0.11615217,0.,0.00001448
 ,-0.00003952,0.,-0.00117084,-0.00424541,0.,0.00002348,-0.00001775,0.,-
 0.00000974,-0.00002442,0.,-0.00031754,-0.00034995,0.,-0.00006200,-0.00
 001379,0.,-0.02077464,0.01657611,0.,-0.00064942,0.00117951,0.,-0.00004
 286,0.00014683,0.,-0.00000071,0.00000889,0.,-0.00000682,0.00000336,0.,
 0.00000732,-0.00000169,0.,0.00000249,0.00000965,0.,0.00001387,-0.00001
 626,0.,0.00001206,0.00001687,0.,0.00000125,0.00000675,0.,-0.00000747,0
 .00000502,0.,-0.00000343,-0.00000555,0.,0.00038691,0.00052969,0.,0.000
 98863,-0.00046770,0.,0.29490277,-0.00000333,0.00000012,0.,0.00000216,0
 .00003772,0.,-0.00000179,0.00000039,0.,0.00018546,-0.00002531,0.,-0.00
 011346,0.00007961,0.,-0.00005880,-0.00006552,0.,0.00010388,0.00017800,
 0.,0.00004207,-0.00005163,0.,0.00002044,-0.00000231,0.,-0.00002339,-0.
 00005951,0.,-0.00000100,-0.00000191,0.,-0.00024485,-0.00045229,0.,-0.0
 0000013,0.00001583,0.,0.00001224,-0.00000134,0.,-0.00000730,0.00004260
 ,0.,0.00000356,0.00000578,0.,-0.00048284,0.00017909,0.,0.00172358,-0.0
 0004804,0.,0.00006896,-0.00002334,0.,0.00198653,0.00151495,0.,-0.00005
 089,0.00005117,0.,-0.00244750,-0.00482074,0.,0.00000445,-0.00003166,0.
 ,0.00010491,0.00010336,0.,0.02982877,-0.01281906,0.,-0.00061349,-0.000
 30752,0.,0.11729356,-0.12189040,0.,0.00001925,-0.00006512,0.,-0.002679
 58,-0.00192356,0.,0.00002044,-0.00002741,0.,-0.00002070,0.00001796,0.,
 -0.00019135,-0.00014607,0.,-0.00001207,0.00000888,0.,-0.01906785,0.011
 20014,0.,-0.00042790,0.00073956,0.,-0.00004094,0.00007918,0.,0.0000006
 6,-0.00000436,0.,0.00000402,-0.00000930,0.,-0.00000345,-0.00000246,0.,
 -0.00000991,-0.00000301,0.,-0.00004358,-0.00001726,0.,-0.00000690,-0.0
 0000107,0.,-0.00000053,-0.00000188,0.,0.00000279,0.00000069,0.,0.00000
 863,-0.00000130,0.,-0.00131171,-0.00006399,0.,0.00033181,0.00105880,0.
 ,-0.12390633,0.12756261,0.,0.,0.00000530,0.,0.,-0.00003566,0.,0.,-0.00
 000740,0.,0.,0.00006597,0.,0.,0.00003282,0.,0.,-0.00000773,0.,0.,-0.00
 007919,0.,0.,0.00001180,0.,0.,0.00000759,0.,0.,-0.00002741,0.,0.,0.000
 02807,0.,0.,-0.00035235,0.,0.,-0.00001231,0.,0.,0.00000522,0.,0.,-0.00
 006209,0.,0.,-0.00001190,0.,0.,-0.00006369,0.,0.,0.00061793,0.,0.,0.00
 000935,0.,0.,-0.00227262,0.,0.,0.00032926,0.,0.,0.00261669,0.,0.,0.000
 03681,0.,0.,-0.00115668,0.,0.,0.00374155,0.,0.,0.00048557,0.,0.,-0.038
 67595,0.,0.,0.00029492,0.,0.,0.00974174,0.,0.,0.00005722,0.,0.,-0.0000
 0142,0.,0.,-0.00122420,0.,0.,0.00011757,0.,0.,0.00512314,0.,0.,0.00031
 216,0.,0.,-0.00003183,0.,0.,0.00000205,0.,0.,0.00000138,0.,0.,0.000002
 66,0.,0.,0.00000279,0.,0.,0.00002041,0.,0.,-0.00000377,0.,0.,0.0000024
 5,0.,0.,0.00000075,0.,0.,0.00000183,0.,0.,0.00038908,0.,0.,-0.00596609
 ,0.,0.,0.02561889,0.00001214,-0.00000623,0.,-0.00000400,0.00001118,0.,
 -0.00001136,-0.00000896,0.,0.00001861,0.00002407,0.,-0.00001139,0.0000
 0340,0.,-0.00004126,-0.00000150,0.,0.00000877,-0.00013801,0.,0.0000187
 7,-0.00004305,0.,0.00000844,0.00001361,0.,-0.00002116,-0.00001499,0.,0
 .00001656,-0.00000894,0.,-0.00009150,0.00007079,0.,0.00001153,0.000003
 20,0.,-0.00004583,0.00000535,0.,0.00001189,-0.00006338,0.,0.00005019,0
 .00015488,0.,0.00000217,-0.00008164,0.,-0.00032515,-0.00010506,0.,0.00
 003172,0.00005630,0.,0.00000784,0.00021690,0.,0.00014185,0.00010317,0.
 ,0.00062288,-0.00123820,0.,-0.00040783,-0.00000610,0.,-0.00062207,-0.0
 0016191,0.,0.00018692,-0.00018390,0.,-0.00456113,-0.00112916,0.,0.0000
 7242,0.00043491,0.,-0.00477244,0.00075083,0.,0.00297484,-0.02986762,0.
 ,0.00043024,0.00137637,0.,0.00013403,0.00006806,0.,0.00114876,0.030223
 50,0.,0.00016661,-0.00036756,0.,0.00141485,-0.00197336,0.,-0.06024857,
 0.00725289,0.,0.00148418,0.00182230,0.,0.00000078,-0.00000048,0.,0.000
 00166,-0.00000383,0.,-0.00000101,-0.00000237,0.,-0.00000432,-0.0000034
 8,0.,-0.00000586,-0.00000091,0.,-0.00000078,-0.00000070,0.,0.00000074,
 0.00000271,0.,-0.00000157,0.00001619,0.,0.00000082,-0.00000915,0.,-0.0
 0003564,-0.00001731,0.,-0.00029387,0.00088065,0.,-0.00001120,0.0000090
 9,0.,0.06288943,-0.00000271,-0.00000949,0.,0.00000237,-0.00001196,0.,-
 0.00001028,-0.00000235,0.,-0.00001771,0.00001739,0.,-0.00002127,-0.000
 01293,0.,-0.00000993,0.00001472,0.,0.00009564,-0.00007163,0.,-0.000023
 00,-0.00001241,0.,-0.00001289,0.00000193,0.,0.00001736,-0.00001805,0.,
 0.00003140,0.00000817,0.,-0.00007203,0.00000911,0.,-0.00001792,-0.0000
 1378,0.,0.00003754,0.00000405,0.,-0.00001611,-0.00001966,0.,-0.0000450
 6,-0.00011752,0.,-0.00001302,-0.00000721,0.,-0.00032952,-0.00004383,0.
 ,0.00000396,0.00001039,0.,-0.00008288,0.00006931,0.,0.00005303,0.00002
 417,0.,0.00073607,-0.00074143,0.,0.00027580,0.00008263,0.,-0.00002904,
 0.00036328,0.,0.00025526,0.00010773,0.,-0.00271334,0.00117457,0.,-0.00
 037559,0.00013543,0.,0.00234530,0.00121248,0.,0.00355538,-0.01456034,0
 .,-0.00073567,-0.00069626,0.,0.00005056,0.00025141,0.,-0.00283038,-0.0
 1232049,0.,0.00030174,0.00001958,0.,0.00194651,0.00087134,0.,0.0065979
 0,-0.33604747,0.,-0.00179524,0.00084697,0.,-0.00000085,-0.00000819,0.,
 0.00000587,0.00000217,0.,-0.00000626,-0.00000718,0.,-0.00000167,-0.000
 00706,0.,-0.00001238,0.00000258,0.,-0.00000507,-0.00000251,0.,0.000002
 88,-0.00001310,0.,0.00000962,-0.00001795,0.,0.00000325,0.00001915,0.,-
 0.00004354,-0.00000402,0.,-0.00095101,0.00060817,0.,-0.00007923,-0.000
 01412,0.,-0.00703488,0.35824227,0.,0.,-0.00003511,0.,0.,0.00005099,0.,
 0.,0.00001230,0.,0.,0.00000632,0.,0.,-0.00016003,0.,0.,0.00001477,0.,0
 .,0.00009102,0.,0.,-0.00002556,0.,0.,-0.00003528,0.,0.,0.00005631,0.,0
 .,-0.00003498,0.,0.,0.00048149,0.,0.,0.00000889,0.,0.,-0.00005807,0.,0
 .,0.00033227,0.,0.,0.00001264,0.,0.,-0.00002565,0.,0.,-0.00068148,0.,0
 .,-0.00000173,0.,0.,-0.00002755,0.,0.,-0.00151764,0.,0.,0.00080992,0.,
 0.,-0.00012379,0.,0.,0.00044945,0.,0.,0.00011180,0.,0.,0.00648235,0.,0
 .,-0.00004765,0.,0.,0.00395868,0.,0.,0.00507529,0.,0.,0.00040579,0.,0.
 ,-0.00007981,0.,0.,0.00392550,0.,0.,-0.00009389,0.,0.,-0.00532566,0.,0
 .,-0.03661561,0.,0.,-0.00310285,0.,0.,0.00000254,0.,0.,0.00000324,0.,0
 .,0.00000495,0.,0.,0.00003812,0.,0.,0.00000380,0.,0.,0.00000416,0.,0.,
 0.00000916,0.,0.,0.00000476,0.,0.,0.00002580,0.,0.,0.00003535,0.,0.,0.
 00038911,0.,0.,0.00035750,0.,0.,0.02429582,0.00004346,0.00001009,0.,-0
 .00002384,0.00000099,0.,0.00000941,-0.00003327,0.,-0.00000542,0.000032
 08,0.,-0.00004990,0.00000744,0.,0.00002201,-0.00001157,0.,0.00004542,-
 0.00000346,0.,-0.00001587,0.00000405,0.,0.00002704,0.00002592,0.,-0.00
 004010,-0.00007591,0.,-0.00001194,0.00007238,0.,0.00009208,-0.00005468
 ,0.,0.00006897,0.00016306,0.,0.00085739,0.00008301,0.,-0.00012406,-0.0
 0029480,0.,-0.00063893,0.00111339,0.,-0.00000599,0.00003476,0.,-0.0000
 3782,-0.00000308,0.,0.00000961,-0.00003129,0.,-0.00002053,-0.00002668,
 0.,-0.00002159,0.00021634,0.,-0.00007599,0.00011966,0.,-0.00034978,0.0
 0164814,0.,-0.00055395,0.00134503,0.,-0.00002497,-0.00000763,0.,-0.000
 29521,-0.00036472,0.,-0.00003339,-0.00000088,0.,-0.00158777,-0.0041470
 3,0.,-0.00004738,-0.00010822,0.,-0.02033036,0.01421679,0.,-0.29221493,
 0.11089737,0.,0.00019768,-0.00063000,0.,0.00153456,-0.00332638,0.,0.00
 004633,-0.00004030,0.,0.00019967,0.00003819,0.,0.00161134,-0.00023135,
 0.,0.00000127,-0.00000062,0.,0.00000638,-0.00002332,0.,-0.00000050,0.0
 0000279,0.,-0.00000684,-0.00000946,0.,-0.00000207,0.00000240,0.,-0.000
 00323,-0.00000353,0.,0.00006143,0.00004958,0.,-0.00001855,-0.00004807,
 0.,0.00224975,0.00032116,0.,-0.00000859,-0.00000126,0.,-0.00000193,0.0
 0001196,0.,-0.00001106,-0.00000202,0.,-0.00002808,0.00005296,0.,0.3085
 2608,0.00001926,0.00001706,0.,-0.00000056,-0.00000404,0.,0.00001368,-0
 .00001300,0.,-0.00000133,-0.00000357,0.,-0.00003730,-0.00001033,0.,0.0
 0005090,-0.00000009,0.,0.00003940,0.00001866,0.,-0.00002422,0.00002964
 ,0.,0.00003396,0.00000585,0.,-0.00005150,0.00001657,0.,0.00009775,0.00
 000495,0.,0.00016747,0.00000390,0.,0.00008206,0.00004031,0.,0.00010242
 ,-0.00006772,0.,-0.00004432,0.00006500,0.,-0.00182374,-0.00287435,0.,0
 .00001608,0.00004451,0.,-0.00005483,0.00003748,0.,-0.00001576,-0.00002
 949,0.,-0.00002857,-0.00004157,0.,0.00001475,0.00005101,0.,-0.00011137
 ,0.00002612,0.,0.00141054,-0.00017663,0.,-0.00054711,0.00084029,0.,0.0
 0001442,0.00001350,0.,-0.00013696,-0.00009422,0.,-0.00000773,-0.000017
 97,0.,-0.00299694,-0.00232793,0.,-0.00005578,-0.00013379,0.,-0.0168700
 7,0.01230325,0.,0.11065087,-0.11162743,0.,-0.00081150,-0.00038911,0.,0
 .03223413,-0.01197459,0.,0.00002608,0.00001366,0.,0.00023463,0.0000899
 5,0.,-0.00136167,-0.00538325,0.,0.00000271,0.00000846,0.,-0.00000375,-
 0.00001118,0.,0.00000482,0.00000286,0.,-0.00000438,0.00000035,0.,0.000
 00282,-0.00000302,0.,0.00000400,0.00000264,0.,0.00002289,0.00003239,0.
 ,-0.00001215,-0.00004188,0.,0.00009805,-0.00477086,0.,0.00000054,-0.00
 000279,0.,-0.00000763,0.00000145,0.,0.00000449,-0.00000054,0.,-0.00006
 314,0.00004272,0.,-0.12124550,0.12588146,0.,0.,-0.00000593,0.,0.,0.000
 00113,0.,0.,0.00000287,0.,0.,-0.00004706,0.,0.,-0.00000505,0.,0.,-0.00
 000639,0.,0.,0.00001498,0.,0.,-0.00000243,0.,0.,0.00000304,0.,0.,0.000
 05052,0.,0.,0.00007290,0.,0.,0.00006437,0.,0.,0.00002255,0.,0.,-0.0004
 3960,0.,0.,-0.00004397,0.,0.,-0.00035981,0.,0.,-0.00002085,0.,0.,-0.00
 001218,0.,0.,0.00000364,0.,0.,0.00001316,0.,0.,-0.00018806,0.,0.,0.000
 08798,0.,0.,-0.00364199,0.,0.,0.00082067,0.,0.,-0.00012584,0.,0.,-0.00
 060028,0.,0.,0.00000090,0.,0.,0.00645677,0.,0.,0.00030443,0.,0.,0.0036
 8039,0.,0.,-0.03701561,0.,0.,-0.00013716,0.,0.,0.00391704,0.,0.,0.0000
 9074,0.,0.,-0.00111548,0.,0.,0.00620998,0.,0.,-0.00000042,0.,0.,0.0000
 0614,0.,0.,0.00000280,0.,0.,0.00000470,0.,0.,0.00000008,0.,0.,0.000000
 95,0.,0.,0.00010699,0.,0.,-0.00001490,0.,0.,0.00212433,0.,0.,0.0000381
 9,0.,0.,0.00000281,0.,0.,-0.00002713,0.,0.,0.00002956,0.,0.,0.02312240
 ,0.00000312,0.00000263,0.,0.00000844,-0.00000944,0.,0.00000696,-0.0000
 0414,0.,-0.00000115,0.00000960,0.,-0.00003334,-0.00001878,0.,0.0000183
 1,-0.00001962,0.,0.00002621,0.00000907,0.,0.00000021,0.00002953,0.,-0.
 00001262,-0.00000951,0.,0.00000714,0.00000325,0.,0.00000360,0.00001021
 ,0.,0.00006825,-0.00000821,0.,0.00002192,-0.00003434,0.,-0.00003814,-0
 .00000222,0.,0.00006411,-0.00000450,0.,-0.00001656,-0.00006121,0.,-0.0
 0000645,0.00007056,0.,-0.00004109,0.00001160,0.,-0.00001119,-0.0000436
 8,0.,-0.00002871,-0.00004770,0.,-0.00010373,-0.00006268,0.,-0.00002265
 ,-0.00002505,0.,0.00009856,0.00011381,0.,0.00015880,-0.00002360,0.,0.0
 0001124,0.00003749,0.,0.00005356,0.00017608,0.,-0.00006619,0.00003463,
 0.,0.00014165,0.00066126,0.,-0.00044643,0.00028717,0.,0.00130419,0.001
 22925,0.,0.00447552,0.00493414,0.,-0.00240949,0.00416836,0.,-0.2642274
 9,-0.12598581,0.,-0.00001278,-0.00017576,0.,-0.00044512,-0.00132316,0.
 ,-0.01989935,-0.01867086,0.,-0.00000012,-0.00000825,0.,0.00000689,0.00
 000062,0.,-0.00000638,0.00000006,0.,0.00000159,-0.00000603,0.,-0.00000
 326,0.00000539,0.,-0.00000827,-0.00000589,0.,-0.00000091,-0.00000786,0
 .,0.00001258,-0.00001087,0.,-0.00001755,0.00001373,0.,-0.00000451,0.00
 000122,0.,0.00000584,0.00002012,0.,-0.00002520,-0.00001044,0.,-0.00001
 803,0.00007080,0.,0.00107721,-0.00038318,0.,0.27929717,-0.00000127,-0.
 00001330,0.,-0.00000335,0.00000411,0.,-0.00000983,-0.00000319,0.,-0.00
 000641,0.00002135,0.,0.00002532,0.00001338,0.,-0.00004382,-0.00000649,
 0.,-0.00003517,-0.00001377,0.,0.00002583,-0.00002932,0.,-0.00002622,0.
 00000389,0.,0.00003176,-0.00005081,0.,-0.00012331,-0.00004317,0.,-0.00
 010452,0.00000501,0.,-0.00003985,-0.00002427,0.,0.00005897,0.00006227,
 0.,0.00017373,-0.00049592,0.,-0.00008160,-0.00003304,0.,-0.00001751,-0
 .00003987,0.,0.00007594,-0.00005014,0.,0.00001829,0.00002466,0.,0.0000
 2567,0.00005415,0.,0.00018995,0.00006050,0.,0.00003629,0.00006040,0.,-
 0.00161783,0.00011572,0.,-0.00016509,0.00009794,0.,-0.00005409,-0.0000
 3957,0.,-0.00008568,-0.00015693,0.,0.00003479,0.00001840,0.,0.00087906
 ,-0.00042309,0.,0.00029309,0.00000457,0.,0.00225045,-0.00489826,0.,-0.
 02979915,-0.01346952,0.,0.00307275,-0.00126575,0.,-0.12609778,-0.13870
 681,0.,0.00001322,0.00003771,0.,0.00023921,0.00060425,0.,0.01641126,0.
 01142772,0.,-0.00000286,-0.00000719,0.,0.00000591,0.00000424,0.,-0.000
 00448,-0.00000157,0.,0.00000150,-0.00000217,0.,-0.00000214,0.00000334,
 0.,-0.00000431,-0.00000297,0.,0.00000098,-0.00001263,0.,0.00001397,-0.
 00003757,0.,0.00004806,-0.00003415,0.,-0.00000313,0.00000121,0.,-0.000
 00364,0.00000519,0.,0.00000269,0.00000367,0.,-0.00001582,-0.00000030,0
 .,0.00033750,0.00106580,0.,0.13461022,0.14524212,0.,0.,-0.00000030,0.,
 0.,-0.00001167,0.,0.,0.00000339,0.,0.,0.00002334,0.,0.,0.00001129,0.,0
 .,-0.00000247,0.,0.,-0.00002748,0.,0.,0.00000164,0.,0.,-0.00000033,0.,
 0.,-0.00003395,0.,0.,0.00003181,0.,0.,0.00000014,0.,0.,0.00001668,0.,0
 .,-0.00004119,0.,0.,-0.00052490,0.,0.,0.00011590,0.,0.,0.00000845,0.,0
 .,0.00004155,0.,0.,-0.00000331,0.,0.,-0.00001700,0.,0.,0.00031661,0.,0
 .,0.00001134,0.,0.,0.00043866,0.,0.,-0.00129485,0.,0.,0.00001367,0.,0.
 ,0.00025687,0.,0.,0.00002427,0.,0.,0.00007726,0.,0.,-0.00067932,0.,0.,
 0.00631495,0.,0.,0.00302642,0.,0.,0.00781628,0.,0.,-0.03873160,0.,0.,-
 0.00002657,0.,0.,0.00038058,0.,0.,0.00367387,0.,0.,0.00000125,0.,0.,0.
 00000090,0.,0.,-0.00000018,0.,0.,0.00000095,0.,0.,0.00000122,0.,0.,-0.
 00000010,0.,0.,0.00000161,0.,0.,0.00000559,0.,0.,-0.00000520,0.,0.,0.0
 0000416,0.,0.,-0.00000377,0.,0.,0.00001042,0.,0.,0.00014218,0.,0.,-0.0
 0363390,0.,0.,0.02661377,-0.00000288,-0.00000548,0.,-0.00000294,-0.000
 00709,0.,-0.00000740,-0.00000086,0.,-0.00004561,-0.00000746,0.,0.00002
 512,0.00001329,0.,-0.00002369,0.00001496,0.,-0.00001143,0.00000084,0.,
 0.00000045,-0.00002875,0.,0.00000677,0.00000995,0.,0.00000046,-0.00000
 532,0.,0.00003402,0.00000456,0.,-0.00002945,-0.00014443,0.,-0.00003435
 ,0.00001724,0.,0.00007987,0.00001469,0.,-0.00009911,0.00008667,0.,-0.0
 0004053,-0.00002383,0.,-0.00000613,-0.00006053,0.,0.00006093,-0.000023
 97,0.,0.00001570,0.00003587,0.,0.00001627,0.00005356,0.,-0.00032047,-0
 .00003494,0.,0.00003761,0.00014048,0.,0.00012797,0.00011481,0.,0.00049
 020,-0.00131921,0.,-0.00002671,-0.00004366,0.,0.00017944,-0.00016790,0
 .,0.00000717,-0.00000696,0.,-0.00441251,-0.00131011,0.,0.00017625,0.00
 044198,0.,-0.00089749,-0.00021274,0.,-0.00457851,0.00139635,0.,0.00330
 015,-0.02908421,0.,0.00248840,0.03152697,0.,-0.00004223,0.00001258,0.,
 0.00145128,-0.00174136,0.,-0.06105274,0.01273711,0.,-0.00000006,0.0000
 0251,0.,-0.00000154,-0.00000206,0.,0.00000199,-0.00000310,0.,-0.000000
 69,0.00000168,0.,-0.00000138,-0.00000253,0.,0.00000327,0.00000201,0.,0
 .00000968,0.00000475,0.,-0.00000292,0.00000218,0.,0.00007420,-0.000029
 03,0.,-0.00000465,-0.00000153,0.,-0.00003518,0.00000924,0.,0.00000823,
 0.00000677,0.,-0.00030557,0.00083728,0.,-0.00009653,0.00135227,0.,0.00
 103365,-0.00052754,0.,0.06245361,-0.00001035,-0.00000255,0.,0.00001116
 ,-0.00002271,0.,0.00000299,0.00000312,0.,-0.00004934,0.00000111,0.,-0.
 00001124,-0.00001213,0.,0.00000718,0.00000799,0.,0.00002816,0.00003049
 ,0.,-0.00001671,0.00001056,0.,-0.00001768,-0.00001040,0.,0.00002451,0.
 00000377,0.,0.00000467,0.00000160,0.,0.00007786,-0.00008986,0.,-0.0000
 1642,-0.00002330,0.,-0.00000892,0.00001375,0.,-0.00003934,-0.00000032,
 0.,0.00004964,-0.00006773,0.,-0.00001477,0.00002073,0.,-0.00002414,0.0
 0000583,0.,-0.00000612,-0.00002031,0.,-0.00003278,-0.00002980,0.,-0.00
 031950,-0.00004770,0.,-0.00004046,0.00007737,0.,0.00001801,0.00006849,
 0.,0.00080216,-0.00065400,0.,0.00002274,0.00000594,0.,0.00007426,0.000
 15642,0.,-0.00006393,-0.00004771,0.,-0.00273826,0.00083523,0.,-0.00037
 425,0.00019889,0.,-0.00025278,0.00057204,0.,0.00261523,0.00123958,0.,0
 .00417301,-0.01424709,0.,-0.00372234,-0.01063089,0.,0.00004931,-0.0000
 9331,0.,0.00189743,0.00077382,0.,0.01262112,-0.33928608,0.,-0.00000086
 ,-0.00000772,0.,0.00000527,0.00000276,0.,-0.00000559,-0.00000432,0.,0.
 00000210,-0.00000440,0.,-0.00000695,0.00000355,0.,-0.00000553,-0.00000
 318,0.,-0.00000095,-0.00001389,0.,0.00000961,-0.00001284,0.,-0.0000453
 5,0.00002887,0.,-0.00001300,0.00000137,0.,-0.00001812,0.00003178,0.,-0
 .00001597,0.00000192,0.,-0.00094872,0.00063949,0.,-0.00008201,-0.00066
 045,0.,0.00045196,0.00092019,0.,-0.01404598,0.36033602,0.,0.,0.0000057
 0,0.,0.,0.00001004,0.,0.,0.00000113,0.,0.,-0.00015791,0.,0.,-0.0000160
 9,0.,0.,0.00000387,0.,0.,0.00001613,0.,0.,-0.00000341,0.,0.,-0.0000014
 5,0.,0.,0.00004466,0.,0.,-0.00000700,0.,0.,0.00012074,0.,0.,0.00001536
 ,0.,0.,-0.00010160,0.,0.,0.00032114,0.,0.,0.00013868,0.,0.,0.00000030,
 0.,0.,-0.00000855,0.,0.,-0.00000176,0.,0.,-0.00001348,0.,0.,-0.0002092
 7,0.,0.,0.00001184,0.,0.,-0.00136997,0.,0.,0.00050467,0.,0.,0.00001287
 ,0.,0.,-0.00004849,0.,0.,0.00000984,0.,0.,0.00514903,0.,0.,-0.00010180
 ,0.,0.,-0.00015902,0.,0.,0.00721673,0.,0.,0.00387397,0.,0.,0.00379666,
 0.,0.,0.00018957,0.,0.,-0.00372958,0.,0.,-0.03687989,0.,0.,-0.00000140
 ,0.,0.,0.00000384,0.,0.,0.00000288,0.,0.,0.00000008,0.,0.,0.00000215,0
 .,0.,0.00000122,0.,0.,0.00001159,0.,0.,0.00000324,0.,0.,0.00009804,0.,
 0.,0.00000383,0.,0.,0.00002044,0.,0.,-0.00003149,0.,0.,0.00036049,0.,0
 .,0.00018703,0.,0.,-0.00434893,0.,0.,0.02505333\\-0.00009372,-0.000001
 81,0.,-0.00012497,-0.00000706,0.,-0.00002791,-0.00006071,0.,-0.0000034
 8,0.00019321,0.,0.00013527,0.00001189,0.,-0.00005475,-0.00011361,0.,-0
 .00010847,0.00003361,0.,-0.00001240,-0.00010946,0.,0.00005133,-0.00004
 420,0.,0.00008565,0.00003199,0.,-0.00015379,0.00006677,0.,0.00001352,-
 0.00007132,0.,0.00017003,-0.00008170,0.,0.00000456,-0.00011295,0.,0.00
 007544,0.00001219,0.,0.00000127,0.00015180,0.,-0.00002094,-0.00020950,
 0.,-0.00002695,0.00000911,0.,0.00001140,0.00017511,0.,-0.00000843,0.00
 028650,0.,0.00000925,0.00001791,0.,0.00001442,-0.00005582,0.,0.0000500
 7,-0.00020430,0.,0.00000899,-0.00001611,0.,-0.00007012,-0.00016082,0.,
 -0.00001454,-0.00002621,0.,-0.00005423,0.00020713,0.,0.00003606,0.0000
 2321,0.,0.00000184,-0.00013406,0.,0.00004894,0.00018213,0.,-0.00001201
 ,-0.00016890,0.,-0.00006751,-0.00017141,0.,0.00000020,0.00013690,0.,-0
 .00003266,0.00006664,0.,0.00004282,0.00007904,0.,0.00010370,0.00011672
 ,0.,-0.00001533,0.00000205,0.,-0.00015840,0.00005714,0.,0.00009143,0.0
 0006724,0.,0.00003328,-0.00003906,0.,0.00008763,-0.00005520,0.,0.00013
 064,0.00004691,0.,0.00001077,0.00004053,0.,-0.00012118,0.00005133,0.,-
 0.00006814,-0.00001221,0.,0.00009522,-0.00007413,0.,0.00001555,-0.0000
 0011,0.,0.00013157,-0.00007573,0.,-0.00000548,0.00000190,0.,-0.0000633
 1,0.00001346,0.,-0.00012410,-0.00006893,0.,-0.00001804,-0.00000711,0.\
 \\@


 THE WISE MAN HAS THE POWER TO REASON AWAY
 WHAT A FOOL BELIEVES.
                     - DOOBIE BROTHERS
 Job cpu time:       0 days  2 hours 44 minutes  0.3 seconds.
 Elapsed time:       0 days  2 hours 45 minutes 10.7 seconds.
 File lengths (MBytes):  RWF=    932 Int=      0 D2E=      0 Chk=     15 Scr=      1
 Normal termination of Gaussian 16 at Mon Aug 24 09:12:56 2020.
